/*--------------------------------*- C++ -*----------------------------------*\
  =========                 |
  \\      /  F ield         | OpenFOAM: The Open Source CFD Toolbox
   \\    /   O peration     | Website:  https://openfoam.org
    \\  /    A nd           | Version:  7
     \\/     M anipulation  |
\*---------------------------------------------------------------------------*/
FoamFile
{
    version     2.0;
    format      ascii;
    class       surfaceScalarField;
    location    "1150/water";
    object      phi;
}
// * * * * * * * * * * * * * * * * * * * * * * * * * * * * * * * * * * * * * //

dimensions      [1 0 -1 0 0 0 0];

internalField   nonuniform List<scalar> 
156660
(
9.905724e-05
6.0010402e-06
6.0528092e-06
8.6847498e-05
6.0555113e-06
6.1542307e-06
7.5687891e-05
5.5111363e-06
5.6484701e-06
6.5441704e-05
5.0404181e-06
5.2057689e-06
5.6267661e-05
4.4956436e-06
4.6783991e-06
4.8318019e-05
3.8797648e-06
4.0698777e-06
4.1624776e-05
3.2524448e-06
3.4407982e-06
3.6124897e-05
2.660462e-06
2.839417e-06
3.1692235e-05
2.1345127e-06
2.2981489e-06
2.8162841e-05
1.6926975e-06
1.8366964e-06
2.5361437e-05
1.3399933e-06
1.4614113e-06
2.3124664e-05
1.0698477e-06
1.1669256e-06
2.1315127e-05
8.6875418e-07
9.4078225e-07
1.9825714e-05
7.2110066e-07
7.6831272e-07
1.8577278e-05
6.1248245e-07
6.3595304e-07
1.7513255e-05
5.3125216e-07
5.3277149e-07
1.6593744e-05
4.6879723e-07
4.5071347e-07
1.5790433e-05
4.191372e-07
3.8417385e-07
1.5082784e-05
3.7829072e-07
3.293585e-07
1.4455417e-05
3.4367126e-07
2.8369563e-07
1.3896409e-05
3.1361406e-07
2.4539332e-07
1.339622e-05
2.8704449e-07
2.1314453e-07
1.2947015e-05
2.6326033e-07
1.8594511e-07
1.2542237e-05
2.4179367e-07
1.6298459e-07
1.2176318e-05
2.2232207e-07
1.435969e-07
1.1844484e-05
2.046148e-07
1.2721881e-07
1.1542609e-05
1.8849497e-07
1.1337973e-07
1.1267116e-05
1.7381575e-07
1.0167794e-07
1.1014892e-05
1.6046272e-07
9.1760821e-08
1.0783252e-05
1.4833969e-07
8.3300587e-08
1.0569851e-05
1.3734905e-07
7.6052118e-08
1.0372614e-05
1.2738862e-07
6.9848313e-08
1.0189731e-05
1.1836807e-07
6.4514836e-08
1.001963e-05
1.1020447e-07
5.989662e-08
9.8609388e-06
1.0281922e-07
5.5871693e-08
9.7124595e-06
9.6137972e-08
5.234138e-08
9.5731439e-06
9.0091166e-08
4.9224367e-08
9.4420759e-06
8.461448e-08
4.6453546e-08
9.3184531e-06
7.964866e-08
4.3974107e-08
9.2015723e-06
7.513969e-08
4.1741046e-08
9.0908166e-06
7.1038161e-08
3.9717553e-08
8.9856432e-06
6.7301156e-08
3.7872303e-08
8.8855707e-06
6.3894242e-08
3.6178145e-08
8.7901757e-06
6.0780084e-08
3.4614953e-08
8.6990829e-06
5.7926187e-08
3.3166637e-08
8.611959e-06
5.5303709e-08
3.1820112e-08
8.5285072e-06
5.2887446e-08
3.0564416e-08
8.4484618e-06
5.0655057e-08
2.9390297e-08
8.3715848e-06
4.8587036e-08
2.8290045e-08
8.2976614e-06
4.6666172e-08
2.725719e-08
8.2264975e-06
4.4877446e-08
2.628642e-08
8.1579202e-06
4.320877e-08
2.5368526e-08
8.0917731e-06
4.1649044e-08
2.449805e-08
8.0279108e-06
4.0186978e-08
2.367534e-08
7.9662006e-06
3.8812685e-08
2.2897519e-08
7.9065219e-06
3.7518401e-08
2.2160228e-08
7.8487639e-06
3.6297858e-08
2.1460142e-08
7.7928241e-06
3.514515e-08
2.0794617e-08
7.7386083e-06
3.4054676e-08
2.0161163e-08
7.6860293e-06
3.3021347e-08
1.95577e-08
7.6350062e-06
3.2040787e-08
1.8982251e-08
7.5854641e-06
3.1109069e-08
1.8433058e-08
7.537333e-06
3.0222611e-08
1.7908472e-08
7.4905478e-06
2.9378255e-08
1.7406997e-08
7.4450476e-06
2.8573018e-08
1.6927195e-08
7.4007756e-06
2.7804211e-08
1.6467807e-08
7.3576783e-06
2.7069606e-08
1.6027645e-08
7.3157056e-06
2.6367054e-08
1.5605625e-08
7.2748103e-06
2.5694675e-08
1.5200661e-08
7.2349479e-06
2.505058e-08
1.4811835e-08
7.1960766e-06
2.4433105e-08
1.4438233e-08
7.158157e-06
2.3840677e-08
1.4078946e-08
7.1211518e-06
2.3271911e-08
1.3733312e-08
7.0850258e-06
2.2725516e-08
1.3400516e-08
7.0497456e-06
2.2200219e-08
1.3079945e-08
7.0152798e-06
2.1694928e-08
1.2770892e-08
6.9815984e-06
2.1208593e-08
1.2472759e-08
6.9486733e-06
2.0740237e-08
1.2184919e-08
6.9164775e-06
2.0288973e-08
1.190681e-08
6.8849857e-06
1.985393e-08
1.1637841e-08
6.8541739e-06
1.9434362e-08
1.1377456e-08
6.8240193e-06
1.902945e-08
1.1125092e-08
6.7945006e-06
1.8638497e-08
1.0880225e-08
6.7655975e-06
1.8260755e-08
1.0642307e-08
6.7372912e-06
1.7895549e-08
1.0410735e-08
6.709564e-06
1.7542108e-08
1.0185083e-08
6.6823995e-06
1.7199604e-08
9.964893e-09
6.6557824e-06
1.6867256e-08
9.7498168e-09
6.6296983e-06
1.6544131e-08
9.5399943e-09
6.604133e-06
1.6229273e-08
9.3360039e-09
6.5790714e-06
1.5921998e-08
9.1397022e-09
6.554494e-06
1.562233e-08
8.9551026e-09
6.5303708e-06
1.5332555e-08
8.7906623e-09
6.5066467e-06
1.506045e-08
8.6636007e-09
6.4832094e-06
1.4827805e-08
8.6095016e-09
6.4598103e-06
1.4693093e-08
8.7060214e-09
6.4358387e-06
1.4826419e-08
9.1451398e-09
6.4096302e-06
1.5741726e-08
1.0466758e-08
6.3782855e-06
1.8026544e-08
1.3318219e-08
3.2300183e-08
2.7923553e-08
0.00010646494
4.1872385e-06
6.4599816e-06
0.0001002019
5.695418e-06
6.6231353e-06
9.3659588e-05
5.7790388e-06
6.2744098e-06
8.7011589e-05
5.6514782e-06
6.0369387e-06
8.0422927e-05
5.366912e-06
5.7173941e-06
7.4094022e-05
4.9022832e-06
5.3063862e-06
6.8167026e-05
4.3278135e-06
4.8516273e-06
6.2722565e-05
3.717891e-06
4.387032e-06
5.7799049e-05
3.1243144e-06
3.9337145e-06
5.3403345e-05
2.5820689e-06
3.5063329e-06
4.9517402e-05
2.1121062e-06
3.1138299e-06
4.6105483e-05
1.7220197e-06
2.7597474e-06
4.3121558e-05
1.4089355e-06
2.4437429e-06
4.0515558e-05
1.1637552e-06
2.163346e-06
3.8237948e-05
9.7485848e-07
1.9152336e-06
3.6242683e-05
8.3055974e-07
1.6959573e-06
3.4488759e-05
7.2043694e-07
1.5022849e-06
3.2940716e-05
6.3586292e-07
1.3313172e-06
3.1568463e-05
5.7005006e-07
1.1804931e-06
3.0346733e-05
5.1784895e-07
1.0475522e-06
2.9254398e-05
4.7545951e-07
9.3049031e-07
2.8273782e-05
4.4013956e-07
8.2752021e-07
2.7390054e-05
4.0994889e-07
7.3704008e-07
2.6590699e-05
3.8353954e-07
6.5760854e-07
2.5865102e-05
3.599889e-07
5.8793072e-07
2.5204197e-05
3.3867629e-07
5.2684258e-07
2.4600205e-05
3.1918357e-07
4.7330348e-07
2.4046429e-05
3.012019e-07
4.2639018e-07
2.3537073e-05
2.8455205e-07
3.8526717e-07
2.3067119e-05
2.69111e-07
3.4918238e-07
2.2632208e-05
2.5478164e-07
3.1747787e-07
2.2228528e-05
2.4147381e-07
2.8959534e-07
2.1852744e-05
2.2911071e-07
2.6504123e-07
2.1501947e-05
2.1762895e-07
2.4337256e-07
2.1173591e-05
2.0696951e-07
2.2420572e-07
2.0865444e-05
1.9707567e-07
2.0720868e-07
2.0575549e-05
1.878925e-07
1.9209396e-07
2.0302183e-05
1.7936722e-07
1.7861344e-07
2.0043829e-05
1.7144909e-07
1.6655323e-07
1.979915e-05
1.6408983e-07
1.5572943e-07
1.956696e-05
1.5724379e-07
1.4598403e-07
1.934621e-05
1.5086895e-07
1.3718218e-07
1.9135969e-05
1.4492653e-07
1.2920882e-07
1.8935407e-05
1.3937904e-07
1.2196306e-07
1.8743783e-05
1.3419231e-07
1.1535759e-07
1.8560435e-05
1.2933511e-07
1.0931723e-07
1.8384766e-05
1.2477908e-07
1.0377716e-07
1.8216241e-05
1.2049852e-07
9.8681299e-08
1.8054377e-05
1.1647013e-07
9.3981306e-08
1.7898734e-05
1.1267292e-07
8.9635414e-08
1.7748917e-05
1.0908822e-07
8.5606977e-08
1.7604563e-05
1.0570004e-07
8.1862402e-08
1.7465345e-05
1.0249337e-07
7.8373251e-08
1.7330962e-05
9.9452998e-08
7.5116999e-08
1.7201138e-05
9.6564388e-08
7.207273e-08
1.7075619e-05
9.3816648e-08
6.9221143e-08
1.695417e-05
9.1201086e-08
6.6545087e-08
1.6836577e-05
8.8709118e-08
6.4029556e-08
1.6722638e-05
8.6331934e-08
6.1661061e-08
1.661217e-05
8.406174e-08
5.942769e-08
1.6505001e-05
8.1891516e-08
5.7318798e-08
1.640097e-05
7.9814929e-08
5.532481e-08
1.6299929e-05
7.7826199e-08
5.3437138e-08
1.620174e-05
7.5919886e-08
5.1647917e-08
1.6106272e-05
7.4091041e-08
4.9950145e-08
1.6013404e-05
7.2335007e-08
4.8337418e-08
1.5923022e-05
7.0647704e-08
4.6803863e-08
1.5835019e-05
6.9025711e-08
4.5344258e-08
1.5749294e-05
6.746554e-08
4.3953674e-08
1.5665753e-05
6.596377e-08
4.2627689e-08
1.5584307e-05
6.451738e-08
4.1362192e-08
1.5504871e-05
6.3123416e-08
4.0153361e-08
1.5427365e-05
6.1779304e-08
3.8997799e-08
1.5351716e-05
6.0482528e-08
3.7892291e-08
1.5277852e-05
5.9230833e-08
3.6833848e-08
1.5205705e-05
5.8021987e-08
3.5819741e-08
1.5135212e-05
5.6854026e-08
3.4847362e-08
1.5066313e-05
5.5725022e-08
3.3914352e-08
1.499895e-05
5.4633127e-08
3.3018416e-08
1.493307e-05
5.3576727e-08
3.2157448e-08
1.4868621e-05
5.2554206e-08
3.1329429e-08
1.4805554e-05
5.1563921e-08
3.0532419e-08
1.4743823e-05
5.0604481e-08
2.976469e-08
1.4683386e-05
4.9674282e-08
2.9024388e-08
1.4624199e-05
4.877181e-08
2.830986e-08
1.4566226e-05
4.7895451e-08
2.7619553e-08
1.4509431e-05
4.7043485e-08
2.6951963e-08
1.4453778e-05
4.6214123e-08
2.6305771e-08
1.4399237e-05
4.5405381e-08
2.5679861e-08
1.4345777e-05
4.4615686e-08
2.5073747e-08
1.4293367e-05
4.3844243e-08
2.4487715e-08
1.4241972e-05
4.3092872e-08
2.3923745e-08
1.4191548e-05
4.2369904e-08
2.3387158e-08
1.4142019e-05
4.1699294e-08
2.2889594e-08
1.4093249e-05
4.1141633e-08
2.2456614e-08
1.4044951e-05
4.0844631e-08
2.2146511e-08
1.3996485e-05
4.1169167e-08
2.2123038e-08
1.3946229e-05
4.3012299e-08
2.2985404e-08
1.389015e-05
4.8540257e-08
2.5565806e-08
6.3281529e-08
5.0000865e-08
0.00010603565
2.7876425e-06
6.4750379e-06
0.00010074799
4.4145413e-06
6.5685292e-06
9.5493515e-05
4.8594027e-06
6.1741158e-06
9.0256432e-05
4.930369e-06
5.9581921e-06
8.5101366e-05
4.8311767e-06
5.6908011e-06
8.0102875e-05
4.5561761e-06
5.3445981e-06
7.5322251e-05
4.1469521e-06
4.9614853e-06
7.0803266e-05
3.6678925e-06
4.5689837e-06
6.6576264e-05
3.1701903e-06
4.1811255e-06
6.2660725e-05
2.6900109e-06
3.8075976e-06
5.9065443e-05
2.2519319e-06
3.4554566e-06
5.5788936e-05
1.8697304e-06
3.1287958e-06
5.2820978e-05
1.5477473e-06
2.8291458e-06
5.014479e-05
1.2836302e-06
2.5563139e-06
4.7739304e-05
1.07123e-06
2.3091141e-06
4.5581183e-05
9.0281502e-07
2.0858661e-06
4.3646423e-05
7.7048779e-07
1.884709e-06
4.1911533e-05
6.6697373e-07
1.7037793e-06
4.0354306e-05
5.8598198e-07
1.541295e-06
3.8954268e-05
5.2230223e-07
1.3955849e-06
3.769288e-05
4.7175604e-07
1.265091e-06
3.6553576e-05
4.3107985e-07
1.1483634e-06
3.552169e-05
3.9778207e-07
1.0440533e-06
3.4584322e-05
3.6999881e-07
9.5090829e-07
3.3730181e-05
3.4635983e-07
8.6777017e-07
3.2949411e-05
3.2587761e-07
7.935687e-07
3.2233419e-05
3.0784045e-07
7.2733483e-07
3.1574711e-05
2.9172985e-07
6.6818101e-07
3.0966769e-05
2.7719264e-07
6.1530128e-07
3.0403928e-05
2.6398098e-07
5.679702e-07
2.9881258e-05
2.5190845e-07
5.2554317e-07
2.9394455e-05
2.4082713e-07
4.8745003e-07
2.8939761e-05
2.3062158e-07
4.531833e-07
2.8513895e-05
2.2120152e-07
4.2229387e-07
2.8113985e-05
2.1249195e-07
3.9438674e-07
2.7737518e-05
2.0442796e-07
3.6911489e-07
2.7382285e-05
1.9695193e-07
3.4617384e-07
2.7046344e-05
1.9001177e-07
3.2529677e-07
2.6727982e-05
1.8355994e-07
3.0625042e-07
2.6425689e-05
1.7755272e-07
2.8883086e-07
2.6138123e-05
1.7195003e-07
2.7285984e-07
2.5864094e-05
1.6671515e-07
2.5818186e-07
2.5602546e-05
1.6181455e-07
2.4466092e-07
2.535253e-05
1.572171e-07
2.3217767e-07
2.51132e-05
1.5289442e-07
2.2062727e-07
2.4883797e-05
1.4882094e-07
2.0991773e-07
2.4663634e-05
1.4497362e-07
1.9996811e-07
2.4452094e-05
1.413318e-07
1.9070706e-07
2.4248615e-05
1.3787696e-07
1.8207152e-07
2.405269e-05
1.3459268e-07
1.7400573e-07
2.3863854e-05
1.3146461e-07
1.664599e-07
2.3681684e-05
1.2848056e-07
1.5938925e-07
2.3505794e-05
1.2562919e-07
1.5275411e-07
2.3335829e-05
1.228987e-07
1.4651969e-07
2.3171462e-05
1.2027636e-07
1.4065458e-07
2.3012394e-05
1.1775474e-07
1.3513021e-07
2.2858345e-05
1.1532969e-07
1.2992039e-07
2.2709057e-05
1.1299536e-07
1.2500172e-07
2.2564291e-05
1.1074519e-07
1.2035288e-07
2.2423824e-05
1.0857347e-07
1.1595459e-07
2.2287451e-05
1.064755e-07
1.1178924e-07
2.2154978e-05
1.04447e-07
1.0784079e-07
2.2026226e-05
1.0248423e-07
1.0409456e-07
2.1901025e-05
1.0058354e-07
1.0053713e-07
2.1779218e-05
9.8741537e-08
9.7156165e-08
2.1660658e-05
9.6954907e-08
9.3940272e-08
2.1545205e-05
9.5221263e-08
9.0879054e-08
2.1432729e-05
9.3538797e-08
8.7962802e-08
2.1323107e-05
9.1905296e-08
8.5182615e-08
2.1216222e-05
9.0318499e-08
8.2530151e-08
2.1111965e-05
8.8776402e-08
7.9997877e-08
2.1010233e-05
8.727713e-08
7.7578643e-08
2.0910927e-05
8.5818959e-08
7.5265882e-08
2.0813956e-05
8.440034e-08
7.3053478e-08
2.0719232e-05
8.3019665e-08
7.0935668e-08
2.0626671e-05
8.1675646e-08
6.8907212e-08
2.0536195e-05
8.0366828e-08
6.6963145e-08
2.0447729e-05
7.9091959e-08
6.5098742e-08
2.0361203e-05
7.7849828e-08
6.3309748e-08
2.0276548e-05
7.6639231e-08
6.1592042e-08
2.0193702e-05
7.5458994e-08
5.9941751e-08
2.0112602e-05
7.4307971e-08
5.8355218e-08
2.0033193e-05
7.3184906e-08
5.6829063e-08
1.9955419e-05
7.2088582e-08
5.5359964e-08
1.9879228e-05
7.1017606e-08
5.3944816e-08
1.9804572e-05
6.9970433e-08
5.2580713e-08
1.9731406e-05
6.8945237e-08
5.1264755e-08
1.9659685e-05
6.7940101e-08
4.9994365e-08
1.9589371e-05
6.6953027e-08
4.8767048e-08
1.9520423e-05
6.5982377e-08
4.7580534e-08
1.9452806e-05
6.5028026e-08
4.6433113e-08
1.9386482e-05
6.4094137e-08
4.532376e-08
1.9321404e-05
6.3194711e-08
4.4253095e-08
1.9257511e-05
6.2366359e-08
4.3225239e-08
1.9194705e-05
6.1695171e-08
4.2253154e-08
1.9132798e-05
6.1374093e-08
4.1377409e-08
1.9071394e-05
6.1822409e-08
4.0750683e-08
1.9009424e-05
6.3924724e-08
4.1057608e-08
1.8944661e-05
6.9304684e-08
4.3998852e-08
7.9170939e-08
7.4661578e-08
0.0001054937
1.9169871e-06
6.4880406e-06
0.00010005365
3.2729596e-06
6.5816334e-06
9.4926077e-05
3.8288995e-06
6.1580776e-06
8.9946373e-05
3.9838108e-06
5.9262629e-06
8.5163276e-05
3.9595077e-06
5.6547657e-06
8.0619137e-05
3.7899368e-06
5.3103784e-06
7.6329462e-05
3.5015547e-06
4.9350725e-06
7.230016e-05
3.1412013e-06
4.5559928e-06
6.8534206e-05
2.7514802e-06
4.1846641e-06
6.5032983e-05
2.3633492e-06
3.8278853e-06
6.1795789e-05
1.9984143e-06
3.490711e-06
5.8818843e-05
1.6703759e-06
3.176301e-06
5.6094718e-05
1.3858295e-06
2.886043e-06
5.3612488e-05
1.1457944e-06
2.6200649e-06
5.1358373e-05
9.4764116e-07
2.3777043e-06
4.9316593e-05
7.8676786e-07
2.1578272e-06
4.7470246e-05
6.5779546e-07
1.9590391e-06
4.5802069e-05
5.5532542e-07
1.7798252e-06
4.4295042e-05
4.7437114e-07
1.6186378e-06
4.293283e-05
4.1056669e-07
1.473948e-06
4.1700078e-05
3.6023236e-07
1.3442759e-06
4.0582591e-05
3.2035743e-07
1.2282094e-06
3.956742e-05
2.8853735e-07
1.1244154e-06
3.8642881e-05
2.6289065e-07
1.0316467e-06
3.7798527e-05
2.4196983e-07
9.4874399e-07
3.7025076e-05
2.2467702e-07
8.746517e-07
3.6314324e-05
2.1018901e-07
8.0840412e-07
3.5659057e-05
1.9788604e-07
7.491104e-07
3.5052961e-05
1.8731582e-07
6.9597281e-07
3.4490519e-05
1.7814869e-07
6.4827378e-07
3.3966922e-05
1.7013169e-07
6.0537439e-07
3.3477973e-05
1.6306724e-07
5.6670867e-07
3.3020016e-05
1.5680297e-07
5.3177544e-07
3.2589865e-05
1.5122054e-07
5.0013242e-07
3.218474e-05
1.4622563e-07
4.7139136e-07
3.1802215e-05
1.4174075e-07
4.4521232e-07
3.1440168e-05
1.3770096e-07
4.2129809e-07
3.1096739e-05
1.3405094e-07
3.9938921e-07
3.0770297e-05
1.3074294e-07
3.7925954e-07
3.0459402e-05
1.2773517e-07
3.6071196e-07
3.0162787e-05
1.2499092e-07
3.435748e-07
2.9879325e-05
1.2247786e-07
3.2769853e-07
2.960802e-05
1.2016733e-07
3.1295273e-07
2.934798e-05
1.1803382e-07
2.9922354e-07
2.9098408e-05
1.1605461e-07
2.8641138e-07
2.885859e-05
1.1420986e-07
2.7442907e-07
2.8627882e-05
1.1248191e-07
2.632e-07
2.8405701e-05
1.1085559e-07
2.5265687e-07
2.819152e-05
1.0931758e-07
2.4274024e-07
2.7984859e-05
1.0785648e-07
2.3339757e-07
2.7785279e-05
1.0646278e-07
2.2458213e-07
2.7592378e-05
1.0512869e-07
2.1625212e-07
2.740579e-05
1.0384733e-07
2.0837033e-07
2.7225174e-05
1.0261115e-07
2.0090358e-07
2.705022e-05
1.0140746e-07
1.9382256e-07
2.6880641e-05
1.0023383e-07
1.8710038e-07
2.6716166e-05
9.9092337e-08
1.8071223e-07
2.6556546e-05
9.7979989e-08
1.7463558e-07
2.6401548e-05
9.6892525e-08
1.6885013e-07
2.6250957e-05
9.5827076e-08
1.6333742e-07
2.610457e-05
9.4781717e-08
1.5808041e-07
2.5962199e-05
9.3754752e-08
1.5306361e-07
2.5823666e-05
9.2744893e-08
1.4827256e-07
2.5688804e-05
9.1751055e-08
1.4369413e-07
2.5557458e-05
9.0771803e-08
1.3931598e-07
2.5429481e-05
8.9805187e-08
1.3512692e-07
2.5304734e-05
8.8851471e-08
1.3111646e-07
2.5183087e-05
8.7911216e-08
1.2727466e-07
2.5064416e-05
8.6983938e-08
1.2359239e-07
2.4948604e-05
8.6068927e-08
1.2006119e-07
2.4835542e-05
8.5165814e-08
1.1667301e-07
2.4725124e-05
8.427432e-08
1.1342048e-07
2.4617252e-05
8.3394308e-08
1.1029658e-07
2.4511832e-05
8.2525449e-08
1.0729479e-07
2.4408775e-05
8.1667745e-08
1.0440897e-07
2.4307997e-05
8.0820992e-08
1.0163339e-07
2.4209416e-05
7.9985039e-08
9.8962644e-08
2.4112956e-05
7.9159748e-08
9.6391554e-08
2.4018546e-05
7.8345061e-08
9.3915266e-08
2.3926115e-05
7.7540724e-08
9.1529315e-08
2.3835598e-05
7.6746577e-08
8.9229253e-08
2.3746933e-05
7.5962307e-08
8.7011059e-08
2.366006e-05
7.5187643e-08
8.4870698e-08
2.3574922e-05
7.4421971e-08
8.2804552e-08
2.3491466e-05
7.3664604e-08
8.0808892e-08
2.3409641e-05
7.2914595e-08
7.8880321e-08
2.33294e-05
7.217067e-08
7.7015476e-08
2.3250698e-05
7.143131e-08
7.5211017e-08
2.3173493e-05
7.0694854e-08
7.3463654e-08
2.3097745e-05
6.9960205e-08
7.1770055e-08
2.3023418e-05
6.9227977e-08
7.0127028e-08
2.2950477e-05
6.8503526e-08
6.8531214e-08
2.2878889e-05
6.7802858e-08
6.6979719e-08
2.2808619e-05
6.7165049e-08
6.5471584e-08
2.2739625e-05
6.667525e-08
6.4013376e-08
2.267185e-05
6.6507086e-08
6.2642329e-08
2.2605149e-05
6.6990722e-08
6.1532373e-08
2.2538888e-05
6.8685995e-08
6.1499911e-08
2.2471121e-05
7.2226965e-08
6.4845096e-08
7.6722844e-08
9.8461332e-08
0.0001051979
1.3340884e-06
6.4961221e-06
9.9496561e-05
2.3731022e-06
6.6011947e-06
9.4262459e-05
2.9019223e-06
6.1610799e-06
8.9251186e-05
3.0856641e-06
5.9094196e-06
8.4493497e-05
3.0947346e-06
5.6224614e-06
8.0033635e-05
2.9846656e-06
5.265134e-06
7.5876907e-05
2.7790155e-06
4.8792667e-06
7.2014635e-05
2.5106844e-06
4.4927895e-06
6.8436293e-05
2.2128728e-06
4.116949e-06
6.5131387e-05
1.9107259e-06
3.7575292e-06
6.208941e-05
1.621732e-06
3.4186596e-06
5.9299432e-05
1.3573878e-06
3.1029661e-06
5.6749589e-05
1.1240344e-06
2.8116386e-06
5.4426788e-05
9.2377947e-07
2.5448158e-06
5.2316754e-05
7.5572797e-07
2.3019466e-06
5.0404313e-05
6.1717854e-07
2.0820302e-06
4.8673788e-05
5.0454349e-07
1.8837772e-06
4.7109414e-05
4.1397181e-07
1.7057275e-06
4.5695713e-05
3.4173649e-07
1.5463363e-06
4.4417792e-05
2.8445145e-07
1.4040359e-06
4.3261575e-05
2.3917114e-07
1.2772781e-06
4.2213952e-05
2.0341501e-07
1.1645652e-06
4.1262871e-05
1.7514744e-07
1.0644719e-06
4.039737e-05
1.5273234e-07
9.7565898e-07
3.9607583e-05
1.348753e-07
8.9688146e-07
3.8884688e-05
1.2055568e-07
8.2701641e-07
3.8220848e-05
1.0901089e-07
7.6501854e-07
3.7609155e-05
9.9633838e-08
7.0994486e-07
3.7043542e-05
9.1977441e-08
6.6095086e-07
3.6518702e-05
8.5705839e-08
6.1728285e-07
3.6030009e-05
8.0552399e-08
5.7827308e-07
3.5573433e-05
7.6308271e-08
5.4333415e-07
3.5145475e-05
7.2811276e-08
5.1195032e-07
3.4743091e-05
6.9934124e-08
4.8367024e-07
3.4363641e-05
6.7575451e-08
4.5810066e-07
3.4004828e-05
6.5652893e-08
4.3489998e-07
3.3664659e-05
6.409859e-08
4.1377211e-07
3.3341393e-05
6.285592e-08
3.9446094e-07
3.3033513e-05
6.1877036e-08
3.7674525e-07
3.2739693e-05
6.1121095e-08
3.6043426e-07
3.2458768e-05
6.0553061e-08
3.4536328e-07
3.2189712e-05
6.0142671e-08
3.3139057e-07
3.1931622e-05
5.9863659e-08
3.1839378e-07
3.1683696e-05
5.9693139e-08
3.0626735e-07
3.1445219e-05
5.9611196e-08
2.9492011e-07
3.1215555e-05
5.9600641e-08
2.8427318e-07
3.0994132e-05
5.9646546e-08
2.7425808e-07
3.0780436e-05
5.9736184e-08
2.6481541e-07
3.0574002e-05
5.985865e-08
2.5589333e-07
3.0374407e-05
6.0004938e-08
2.4744661e-07
3.0181267e-05
6.0167655e-08
2.3943548e-07
2.9994229e-05
6.0341262e-08
2.3182486e-07
2.9812971e-05
6.0521802e-08
2.2458373e-07
2.9637193e-05
6.0704437e-08
2.1768452e-07
2.9466629e-05
6.08673e-08
2.1110458e-07
2.9301024e-05
6.1016992e-08
2.0482178e-07
2.914014e-05
6.1160865e-08
1.9881567e-07
2.8983756e-05
6.1294933e-08
1.9306838e-07
2.8831669e-05
6.141546e-08
1.8756389e-07
2.8683688e-05
6.1520956e-08
1.8228764e-07
2.8539633e-05
6.1610546e-08
1.7722634e-07
2.8399336e-05
6.1683821e-08
1.7236785e-07
2.8262639e-05
6.1740509e-08
1.6770088e-07
2.8129394e-05
6.1780688e-08
1.6321519e-07
2.7999461e-05
6.1803917e-08
1.5890121e-07
2.7872709e-05
6.1807403e-08
1.5475035e-07
2.7749012e-05
6.1793578e-08
1.5075443e-07
2.7628253e-05
6.1764818e-08
1.4690558e-07
2.7510319e-05
6.1720984e-08
1.4319659e-07
2.7395105e-05
6.166213e-08
1.3962084e-07
2.728251e-05
6.1588643e-08
1.3617201e-07
2.7172439e-05
6.1501067e-08
1.3284423e-07
2.7064802e-05
6.1399989e-08
1.2963194e-07
2.6959511e-05
6.128593e-08
1.2652994e-07
2.6856486e-05
6.1159517e-08
1.2353324e-07
2.6755649e-05
6.1021289e-08
1.2063732e-07
2.6656924e-05
6.0871868e-08
1.1783765e-07
2.6560242e-05
6.0711704e-08
1.1513015e-07
2.6465535e-05
6.0541394e-08
1.1251075e-07
2.6372738e-05
6.0361368e-08
1.0997578e-07
2.6281791e-05
6.0171958e-08
1.0752157e-07
2.6192636e-05
5.9973547e-08
1.051447e-07
2.6105215e-05
5.9766316e-08
1.0284182e-07
2.6019477e-05
5.9550228e-08
1.0060974e-07
2.5935371e-05
5.9325156e-08
9.8445298e-08
2.585285e-05
5.9090502e-08
9.6345369e-08
2.5771868e-05
5.8845464e-08
9.4306914e-08
2.5692384e-05
5.8588963e-08
9.2326716e-08
2.5614357e-05
5.8319807e-08
9.0401429e-08
2.5537753e-05
5.803705e-08
8.8527339e-08
2.5462539e-05
5.774162e-08
8.6700228e-08
2.5388689e-05
5.7438408e-08
8.4915165e-08
2.5316184e-05
5.714143e-08
8.3166621e-08
2.5245017e-05
5.6882595e-08
8.1449634e-08
2.51752e-05
5.6726049e-08
7.9765797e-08
2.510677e-05
5.6787907e-08
7.8149178e-08
2.5039729e-05
5.7251599e-08
7.6780968e-08
2.4973573e-05
5.8330917e-08
7.651023e-08
2.4906079e-05
5.9989473e-08
7.9732173e-08
6.0714992e-08
1.1287826e-07
0.00010503672
9.078937e-07
6.5005614e-06
9.9140653e-05
1.6524914e-06
6.6166801e-06
9.3788329e-05
2.0825241e-06
6.1717217e-06
8.8708526e-05
2.2549373e-06
5.91053e-06
8.3909682e-05
2.2784039e-06
5.6151748e-06
7.9437109e-05
2.2074821e-06
5.2497564e-06
7.5296201e-05
2.0645348e-06
4.8553893e-06
7.1474034e-05
1.8722543e-06
4.460597e-06
6.7955013e-05
1.6547667e-06
4.0771269e-06
6.4723621e-05
1.4313505e-06
3.7107669e-06
6.1764423e-05
1.2154298e-06
3.3655007e-06
5.9062056e-05
1.015864e-06
3.0438911e-06
5.6601108e-05
8.3782743e-07
2.7471548e-06
5.4365944e-05
6.8344648e-07
2.475497e-06
5.2340648e-05
5.5258526e-07
2.2284383e-06
5.0509125e-05
4.4366547e-07
2.0050361e-06
4.8855299e-05
3.5433457e-07
1.8040352e-06
4.7363353e-05
2.8193591e-07
1.6239821e-06
4.6017963e-05
2.2381346e-07
1.4633128e-06
4.4804502e-05
1.7749381e-07
1.3204181e-06
4.3709199e-05
1.4078088e-07
1.1936935e-06
4.2719248e-05
1.1179157e-07
1.081575e-06
4.1822875e-05
8.8954552e-08
9.8256582e-07
4.1009364e-05
7.0987986e-08
8.9525471e-07
4.0269054e-05
5.6861809e-08
8.183238e-07
3.9593306e-05
4.5719118e-08
7.5058474e-07
3.8974405e-05
3.6977844e-08
6.9093436e-07
3.8405585e-05
3.0067376e-08
6.3838631e-07
3.7880869e-05
2.4650849e-08
5.9204241e-07
3.7395029e-05
2.0440012e-08
5.5110604e-07
3.6943514e-05
1.71903e-08
5.1487715e-07
3.6522366e-05
1.4716737e-08
4.8273957e-07
3.6128148e-05
1.2874792e-08
4.5415393e-07
3.5757883e-05
1.1549925e-08
4.2864946e-07
3.5408991e-05
1.0650777e-08
4.0581704e-07
3.5079238e-05
1.0103653e-08
3.8530229e-07
3.4766689e-05
9.8482883e-09
3.6679877e-07
3.4469668e-05
9.8351349e-09
3.5004232e-07
3.4186716e-05
1.0022935e-08
3.3480554e-07
3.3916567e-05
1.0377058e-08
3.2089289e-07
3.3658116e-05
1.0868094e-08
3.0813664e-07
3.3410395e-05
1.147098e-08
2.9639285e-07
3.3172556e-05
1.2164238e-08
2.8553828e-07
3.2943852e-05
1.2929283e-08
2.7546718e-07
3.2723625e-05
1.3750163e-08
2.6608894e-07
3.2511286e-05
1.4613039e-08
2.5732572e-07
3.2306316e-05
1.5506257e-08
2.4911067e-07
3.2108246e-05
1.6419601e-08
2.4138621e-07
3.1916658e-05
1.7344665e-08
2.3410268e-07
3.1731171e-05
1.8274315e-08
2.272171e-07
3.1551444e-05
1.920314e-08
2.2069211e-07
3.1377162e-05
2.0127729e-08
2.1449504e-07
3.1208038e-05
2.1048619e-08
2.0859679e-07
3.10438e-05
2.1972762e-08
2.0297054e-07
3.0884232e-05
2.282786e-08
1.9760736e-07
3.0729103e-05
2.3663012e-08
1.9248229e-07
3.05782e-05
2.4490024e-08
1.8757382e-07
3.0431331e-05
2.5296287e-08
1.8286763e-07
3.0288318e-05
2.6078007e-08
1.7835076e-07
3.0148994e-05
2.6834314e-08
1.7401106e-07
3.0013202e-05
2.7564694e-08
1.6983755e-07
2.9880797e-05
2.826895e-08
1.6582023e-07
2.975164e-05
2.8947423e-08
1.6195012e-07
2.96256e-05
2.9600752e-08
1.5821894e-07
2.9502557e-05
3.0228557e-08
1.5461921e-07
2.9382396e-05
3.082359e-08
1.5114466e-07
2.9265007e-05
3.139311e-08
1.4778875e-07
2.9150287e-05
3.1939581e-08
1.4454535e-07
2.9038137e-05
3.2461876e-08
1.4140896e-07
2.8928465e-05
3.296007e-08
1.3837462e-07
2.8821181e-05
3.3434688e-08
1.3543751e-07
2.8716203e-05
3.3886391e-08
1.3259331e-07
2.8613449e-05
3.4315543e-08
1.2983785e-07
2.8512845e-05
3.4722883e-08
1.2716737e-07
2.8414317e-05
3.5108971e-08
1.2457815e-07
2.8317797e-05
3.5474453e-08
1.2206681e-07
2.8223219e-05
3.5819887e-08
1.1963007e-07
2.813052e-05
3.6145923e-08
1.1726492e-07
2.803964e-05
3.6453065e-08
1.1496839e-07
2.7950522e-05
3.6741881e-08
1.1273772e-07
2.7863111e-05
3.7012834e-08
1.1057029e-07
2.7777354e-05
3.7266258e-08
1.0846342e-07
2.7693204e-05
3.7502453e-08
1.0641472e-07
2.761061e-05
3.7721587e-08
1.0442174e-07
2.752953e-05
3.7923525e-08
1.0248201e-07
2.7449919e-05
3.8107975e-08
1.0059307e-07
2.7371738e-05
3.8274268e-08
9.8752288e-08
2.7294949e-05
3.8421536e-08
9.6956916e-08
2.7219516e-05
3.8548723e-08
9.5203636e-08
2.714541e-05
3.8655114e-08
9.3488593e-08
2.7072603e-05
3.8741133e-08
9.1806969e-08
2.7001079e-05
3.8810283e-08
9.0152325e-08
2.6930832e-05
3.8872082e-08
8.8516582e-08
2.6861876e-05
3.894738e-08
8.6890546e-08
2.679426e-05
3.9073541e-08
8.5269187e-08
2.6728065e-05
3.9306971e-08
8.3675946e-08
2.6663337e-05
3.9708328e-08
8.2271168e-08
2.659956e-05
4.0271993e-08
8.1836189e-08
2.6534295e-05
4.0698012e-08
8.4555721e-08
3.962085e-08
1.1507132e-07
0.00010494757
5.6811076e-07
6.5033076e-06
9.8925416e-05
1.0462983e-06
6.6283516e-06
9.3480449e-05
1.3439844e-06
6.1835065e-06
8.8341777e-05
1.4751323e-06
5.9184762e-06
8.3502084e-05
1.4993911e-06
5.6187065e-06
7.9004057e-05
1.4572411e-06
5.2482679e-06
7.4853978e-05
1.3667382e-06
4.8478757e-06
7.1037378e-05
1.2423973e-06
4.4464569e-06
6.7536063e-05
1.0997693e-06
4.0563128e-06
6.4331998e-05
9.5192361e-07
3.6834909e-06
6.1407318e-05
8.0805758e-07
3.3320524e-06
5.8744339e-05
6.7422206e-07
3.0046209e-06
5.6325632e-05
5.54044e-07
2.7024907e-06
5.4133973e-05
4.4916748e-07
2.4259383e-06
5.2152298e-05
3.5972401e-07
2.174536e-06
5.0363747e-05
2.8484513e-07
1.9473718e-06
4.875178e-05
2.2310005e-07
1.7432016e-06
4.7300339e-05
1.7281168e-07
1.5605647e-06
4.5994012e-05
1.3226573e-07
1.3978748e-06
4.4818177e-05
9.9840034e-08
1.2534891e-06
4.3759121e-05
7.4075601e-08
1.1257614e-06
4.2804123e-05
5.3707634e-08
1.0130814e-06
4.1941503e-05
3.7671235e-08
9.1390375e-07
4.1160627e-05
2.5096464e-08
8.2676732e-07
4.0451891e-05
1.5294161e-08
7.5030386e-07
3.980679e-05
7.5281504e-09
6.8329174e-07
3.9217543e-05
1.672759e-09
6.2455203e-07
3.8677513e-05
-3.0331047e-09
5.7313082e-07
3.8180739e-05
-6.6486661e-09
5.2807355e-07
3.7722004e-05
-9.3594981e-09
4.8853449e-07
3.7296777e-05
-1.1371803e-08
4.5378923e-07
3.6901112e-05
-1.2818188e-08
4.2319913e-07
3.6531588e-05
-1.3805296e-08
3.9620479e-07
3.6185236e-05
-1.4417497e-08
3.7231878e-07
3.5859491e-05
-1.4721903e-08
3.5111777e-07
3.5552132e-05
-1.4772646e-08
3.322358e-07
3.5261237e-05
-1.4613911e-08
3.1535728e-07
3.4985143e-05
-1.4282175e-08
3.0021089e-07
3.472241e-05
-1.3807705e-08
2.8656377e-07
3.4471787e-05
-1.3215877e-08
2.7421631e-07
3.4232185e-05
-1.2528205e-08
2.6299771e-07
3.4002657e-05
-1.176281e-08
2.5276176e-07
3.3782373e-05
-1.0935229e-08
2.4338337e-07
3.3570606e-05
-1.0058783e-08
2.3475555e-07
3.3366714e-05
-9.1447379e-09
2.2678671e-07
3.3170131e-05
-8.2028198e-09
2.1939834e-07
3.2980356e-05
-7.2412314e-09
2.12523e-07
3.279694e-05
-6.266925e-09
2.0610279e-07
3.2619482e-05
-5.2855544e-09
2.0008782e-07
3.2447623e-05
-4.3018274e-09
1.944348e-07
3.228104e-05
-3.3190434e-09
1.8910585e-07
3.2119438e-05
-2.3383089e-09
1.8406732e-07
3.1962554e-05
-1.3530462e-09
1.7928648e-07
3.1810075e-05
-2.763227e-10
1.7472763e-07
3.1661878e-05
5.8582826e-10
1.7043904e-07
3.1517732e-05
1.4355961e-09
1.6637293e-07
3.1377429e-05
2.3038201e-09
1.6248959e-07
3.1240792e-05
3.1586434e-09
1.5877485e-07
3.1107656e-05
3.9969874e-09
1.5521717e-07
3.0977867e-05
4.817167e-09
1.5180544e-07
3.0851284e-05
5.6179645e-09
1.4852965e-07
3.0727774e-05
6.3990355e-09
1.4538079e-07
3.0607209e-05
7.1609362e-09
1.4235052e-07
3.0489473e-05
7.9059414e-09
1.3943118e-07
3.037445e-05
8.6357417e-09
1.3661576e-07
3.0262049e-05
9.3206544e-09
1.3390397e-07
3.0152163e-05
9.9938106e-09
1.3128566e-07
3.0044697e-05
1.0650387e-08
1.2875512e-07
2.9939564e-05
1.1286739e-08
1.2630826e-07
2.983668e-05
1.1903202e-08
1.2394087e-07
2.9735965e-05
1.2500186e-08
1.2164884e-07
2.9637345e-05
1.3077868e-08
1.1942842e-07
2.9540748e-05
1.363673e-08
1.1727616e-07
2.9446105e-05
1.4177033e-08
1.1518883e-07
2.9353352e-05
1.4699184e-08
1.1316339e-07
2.9262425e-05
1.5203548e-08
1.1119703e-07
2.9173268e-05
1.5690493e-08
1.092871e-07
2.9085822e-05
1.6160394e-08
1.0743109e-07
2.9000035e-05
1.6613609e-08
1.0562665e-07
2.8915855e-05
1.7050406e-08
1.0387155e-07
2.8833233e-05
1.7471102e-08
1.0216361e-07
2.8752123e-05
1.787595e-08
1.005008e-07
2.8672479e-05
1.8265107e-08
9.8881096e-08
2.8594259e-05
1.8638534e-08
9.7302492e-08
2.8517424e-05
1.8996183e-08
9.576294e-08
2.8441934e-05
1.9337794e-08
9.4260347e-08
2.8367753e-05
1.9662786e-08
9.2792341e-08
2.8294848e-05
1.9970481e-08
9.1356302e-08
2.8223187e-05
2.0260013e-08
8.994884e-08
2.8152746e-05
2.0530709e-08
8.8565928e-08
2.8083503e-05
2.0782613e-08
8.7201803e-08
2.8015447e-05
2.1017519e-08
8.5848672e-08
2.7948582e-05
2.1240695e-08
8.4495858e-08
2.7882937e-05
2.1462714e-08
8.3129524e-08
2.7818574e-05
2.1699986e-08
8.1736508e-08
2.7755588e-05
2.1969267e-08
8.0324329e-08
2.7694014e-05
2.2266181e-08
7.9016083e-08
2.7633299e-05
2.2506307e-08
7.848063e-08
2.7571004e-05
2.2393425e-08
8.0599469e-08
2.0993118e-08
1.0779947e-07
0.00010489986
2.7443377e-07
6.5049155e-06
9.8802772e-05
5.0716632e-07
6.6362235e-06
9.329591e-05
6.5854975e-07
6.1922972e-06
8.8116302e-05
7.2902548e-07
5.9257148e-06