/*--------------------------------*- C++ -*----------------------------------*\
  =========                 |
  \\      /  F ield         | OpenFOAM: The Open Source CFD Toolbox
   \\    /   O peration     | Website:  https://openfoam.org
    \\  /    A nd           | Version:  7
     \\/     M anipulation  |
\*---------------------------------------------------------------------------*/
FoamFile
{
    version     2.0;
    format      ascii;
    class       volVectorField;
    location    "3600/water";
    object      U;
}
// * * * * * * * * * * * * * * * * * * * * * * * * * * * * * * * * * * * * * //

dimensions      [0 1 -1 0 0 0 0];

internalField   nonuniform List<vector> 
54000
(
(0.0090020934 0.00020305973 0.00020444027)
(0.0083186447 0.00023622738 0.00023904411)
(0.0073695241 0.00021363852 0.00021763527)
(0.0063566114 0.00018488016 0.00018965819)
(0.0054486673 0.00015530836 0.00016048633)
(0.0046741594 0.00012529952 0.00013052937)
(0.0040193038 9.7052611e-05 0.00010203017)
(0.0034740067 7.2578998e-05 7.7073287e-05)
(0.0030302461 5.2876127e-05 5.6738329e-05)
(0.0026757323 3.8068151e-05 4.1216512e-05)
(0.0023947254 2.7637704e-05 3.003714e-05)
(0.0021713898 2.0689034e-05 2.2336509e-05)
(0.0019919695 1.6236161e-05 1.7152703e-05)
(0.0018455015 1.3416236e-05 1.3643172e-05)
(0.0017237326 1.1582489e-05 1.1179122e-05)
(0.0016206928 1.0304892e-05 9.3455803e-06)
(0.0015321593 9.3257909e-06 7.895715e-06)
(0.0014551546 8.5052958e-06 6.6953097e-06)
(0.0013875459 7.7746339e-06 5.6760576e-06)
(0.0013277612 7.1034289e-06 4.8034865e-06)
(0.001274601 6.4798501e-06 4.0581564e-06)
(0.0012271179 5.8999457e-06 3.4261578e-06)
(0.0011845424 5.3625306e-06 2.8950707e-06)
(0.001146235 4.8670209e-06 2.4526292e-06)
(0.0011116558 4.4125992e-06 2.086977e-06)
(0.0010803434 3.9980129e-06 1.7867451e-06)
(0.0010519002 3.6214593e-06 1.5416125e-06)
(0.0010259819 3.2805937e-06 1.3421852e-06)
(0.001002289 2.9733953e-06 1.1797314e-06)
(0.00098056199 2.6979494e-06 1.0463206e-06)
(0.00096057571 2.4519211e-06 9.3658901e-07)
(0.00094213242 2.2325665e-06 8.4693381e-07)
(0.00092505792 2.037387e-06 7.7316636e-07)
(0.00090920047 1.8640899e-06 7.1184223e-07)
(0.00089442818 1.7104627e-06 6.6046741e-07)
(0.0008806259 1.5743832e-06 6.1707363e-07)
(0.00086769295 1.4538621e-06 5.8005407e-07)
(0.00085554128 1.347071e-06 5.4811523e-07)
(0.00084409387 1.2523492e-06 5.2023896e-07)
(0.00083328322 1.1681986e-06 4.9562766e-07)
(0.00082305015 1.0932609e-06 4.7365341e-07)
(0.00081334267 1.0262301e-06 4.5378293e-07)
(0.00080411486 9.6585921e-07 4.3554531e-07)
(0.00079532615 9.1131119e-07 4.186508e-07)
(0.0007869407 8.6191638e-07 4.0290797e-07)
(0.00077892675 8.1708268e-07 3.8816831e-07)
(0.00077125603 7.76277e-07 3.7432088e-07)
(0.0007639033 7.3902686e-07 3.6127639e-07)
(0.00075684597 7.0491469e-07 3.4896483e-07)
(0.00075006373 6.7357559e-07 3.37332e-07)
(0.00074353821 6.4469413e-07 3.2633722e-07)
(0.00073725294 6.1802539e-07 3.1581812e-07)
(0.00073119314 5.9334745e-07 3.0574423e-07)
(0.00072534528 5.7041894e-07 2.9621055e-07)
(0.00071969687 5.490251e-07 2.8716626e-07)
(0.00071423652 5.2901466e-07 2.7854327e-07)
(0.00070895385 5.1027421e-07 2.7031111e-07)
(0.00070383928 4.9268782e-07 2.624474e-07)
(0.00069888397 4.7614469e-07 2.5493157e-07)
(0.00069407976 4.6054987e-07 2.4774252e-07)
(0.00068941911 4.4582075e-07 2.4086341e-07)
(0.00068489502 4.318851e-07 2.3427614e-07)
(0.00068050098 4.1868e-07 2.2796367e-07)
(0.00067623091 4.0614653e-07 2.2191265e-07)
(0.00067207915 3.942343e-07 2.161056e-07)
(0.00066804042 3.8289719e-07 2.1053207e-07)
(0.00066410976 3.7209486e-07 2.0517842e-07)
(0.00066028251 3.6179412e-07 2.0003192e-07)
(0.00065655429 3.5196274e-07 1.9508244e-07)
(0.00065292099 3.4257012e-07 1.9031762e-07)
(0.00064937872 3.3358621e-07 1.8572854e-07)
(0.00064592384 3.2498789e-07 1.8130525e-07)
(0.00064255288 3.1675162e-07 1.7704035e-07)
(0.00063926261 3.0885569e-07 1.7292488e-07)
(0.00063604992 3.0128256e-07 1.6895127e-07)
(0.00063291191 2.9401342e-07 1.6511125e-07)
(0.00062984582 2.870315e-07 1.6139873e-07)
(0.00062684904 2.8032125e-07 1.5780379e-07)
(0.00062391907 2.7387094e-07 1.5432053e-07)
(0.00062105358 2.6766538e-07 1.5094233e-07)
(0.00061825035 2.6169371e-07 1.4766105e-07)
(0.00061550726 2.559452e-07 1.4446988e-07)
(0.00061282235 2.5040804e-07 1.4135914e-07)
(0.00061019373 2.4506865e-07 1.3832396e-07)
(0.00060761964 2.3991864e-07 1.3535618e-07)
(0.00060509845 2.3494606e-07 1.3244848e-07)
(0.00060262862 2.3013451e-07 1.2959774e-07)
(0.00060020873 2.2546912e-07 1.2680392e-07)
(0.00059783744 2.2093111e-07 1.2407615e-07)
(0.00059551348 2.1649804e-07 1.2143341e-07)
(0.00059323554 2.1214927e-07 1.189293e-07)
(0.00059100214 2.0787167e-07 1.1666237e-07)
(0.00058881114 2.0369047e-07 1.1483057e-07)
(0.00058665898 1.9973006e-07 1.1382061e-07)
(0.0005845387 1.9638346e-07 1.1441035e-07)
(0.00058243501 1.9487234e-07 1.1837299e-07)
(0.00058031396 1.9977431e-07 1.3094404e-07)
(0.0005781161 2.2258432e-07 1.6397676e-07)
(0.00057566369 1.9706843e-07 1.5080673e-07)
(0.00056906201 7.8896441e-07 7.5322601e-07)
(0.0095316863 0.0003313754 0.00022336697)
(0.0092716504 0.00041105942 0.00027052342)
(0.0087756651 0.00040317187 0.00026060062)
(0.0081527518 0.00038218754 0.00024252081)
(0.0075302151 0.00035309574 0.00022101124)
(0.0069425889 0.00031541062 0.00019648834)
(0.006391209 0.00027309198 0.00017102969)
(0.0058791846 0.00023030693 0.00014652546)
(0.0054120202 0.00019001855 0.00012410997)
(0.0049926512 0.00015423459 0.00010436627)
(0.004620592 0.00012408347 8.7479017e-05)
(0.0042931332 9.9809403e-05 7.3327496e-05)
(0.0040063965 8.0956424e-05 6.1601502e-05)
(0.0037559538 6.667221e-05 5.1918794e-05)
(0.0035372541 5.5985801e-05 4.3907444e-05)
(0.003345947 4.7992057e-05 3.7246645e-05)
(0.0031780884 4.1941711e-05 3.1677529e-05)
(0.0030302311 3.7262446e-05 2.699792e-05)
(0.0028994324 3.3540997e-05 2.3051138e-05)
(0.0027832152 3.0490245e-05 1.9714594e-05)
(0.0026795075 2.7915735e-05 1.6890544e-05)
(0.0025865783 2.568784e-05 1.4499382e-05)
(0.002502978 2.3720893e-05 1.2475015e-05)
(0.0024274871 2.195843e-05 1.0761725e-05)
(0.0023590736 2.0362993e-05 9.3122331e-06)
(0.0022968589 1.8909454e-05 8.0861292e-06)
(0.0022400906 1.7580767e-05 7.048962e-06)
(0.0021881216 1.6364898e-05 6.1714974e-06)
(0.0021403932 1.5251964e-05 5.4283134e-06)
(0.0020964214 1.423385e-05 4.7973511e-06)
(0.0020557868 1.330304e-05 4.2604818e-06)
(0.0020181236 1.2451985e-05 3.8027039e-06)
(0.0019831119 1.1673909e-05 3.4109604e-06)
(0.0019504718 1.0962756e-05 3.0744201e-06)
(0.0019199589 1.0312855e-05 2.7842604e-06)
(0.0018913593 9.7188351e-06 2.5331805e-06)
(0.0018644851 9.1756457e-06 2.3150738e-06)
(0.0018391716 8.678572e-06 2.1248313e-06)
(0.0018152735 8.223241e-06 1.9581834e-06)
(0.0017926629 7.8056196e-06 1.8115683e-06)
(0.0017712268 7.4219971e-06 1.6820113e-06)
(0.001750865 7.0689369e-06 1.5670702e-06)
(0.0017314886 6.7432683e-06 1.4647432e-06)
(0.0017130186 6.442272e-06 1.3732747e-06)
(0.0016953848 6.1635556e-06 1.2911594e-06)
(0.0016785241 5.9049767e-06 1.2171197e-06)
(0.00166238 5.6646097e-06 1.150084e-06)
(0.0016469019 5.4407257e-06 1.0891494e-06)
(0.001632044 5.2317778e-06 1.0335536e-06)
(0.0016177648 5.0363856e-06 9.826546e-07)
(0.0016040271 4.853323e-06 9.3589469e-07)
(0.0015907965 4.6815627e-06 8.92738e-07)
(0.0015780424 4.5201565e-06 8.5278647e-07)
(0.0015657364 4.3681529e-06 8.1576954e-07)
(0.0015538526 4.224682e-06 7.8138436e-07)
(0.0015423672 4.0890608e-06 7.4934528e-07)
(0.0015312583 3.9607293e-06 7.1941216e-07)
(0.0015205058 3.839153e-06 6.9138689e-07)
(0.0015100909 3.7238121e-06 6.650938e-07)
(0.0014999963 3.6142432e-06 6.4037952e-07)
(0.0014902061 3.5100296e-06 6.1710841e-07)
(0.0014807053 3.4107987e-06 5.9515964e-07)
(0.00147148 3.3162129e-06 5.7442741e-07)
(0.0014625175 3.2259586e-06 5.5481397e-07)
(0.0014538055 3.1397538e-06 5.3623458e-07)
(0.0014453328 3.0573356e-06 5.186129e-07)
(0.0014370889 2.9784714e-06 5.0187914e-07)
(0.0014290637 2.9029578e-06 4.8596758e-07)
(0.001421248 2.8306022e-06 4.7082281e-07)
(0.001413633 2.7612191e-06 4.5639254e-07)
(0.0014062103 2.6946335e-06 4.4262803e-07)
(0.0013989723 2.6306913e-06 4.2948691e-07)
(0.0013919116 2.5692465e-06 4.1692974e-07)
(0.0013850211 2.5101622e-06 4.0492035e-07)
(0.0013782945 2.4533187e-06 3.9342475e-07)
(0.0013717253 2.3985953e-06 3.8241154e-07)
(0.0013653078 2.3458855e-06 3.7185249e-07)
(0.0013590364 2.2950859e-06 3.6171867e-07)
(0.0013529058 2.2461042e-06 3.5198418e-07)
(0.001346911 2.1988502e-06 3.4262613e-07)
(0.0013410472 2.1532403e-06 3.336206e-07)
(0.0013353099 2.1091965e-06 3.2494478e-07)
(0.001329695 2.0666384e-06 3.1657773e-07)
(0.0013241983 2.025488e-06 3.0850001e-07)
(0.001318816 1.985673e-06 3.0069012e-07)
(0.0013135446 1.9471134e-06 2.9313094e-07)
(0.0013083808 1.9097255e-06 2.8580569e-07)
(0.0013033213 1.8734229e-06 2.7870254e-07)
(0.0012983632 1.8381142e-06 2.7181685e-07)
(0.0012935038 1.8037136e-06 2.651542e-07)
(0.0012887402 1.7701703e-06 2.5874297e-07)
(0.0012840698 1.7375327e-06 2.5264973e-07)
(0.0012794889 1.7061205e-06 2.4701422e-07)
(0.0012749925 1.676907e-06 2.4211409e-07)
(0.001270572 1.6524664e-06 2.3851813e-07)
(0.0012662098 1.6393327e-06 2.3765903e-07)
(0.0012618709 1.6545771e-06 2.4458233e-07)
(0.0012574959 1.7463711e-06 2.7712411e-07)
(0.0012529717 2.0376704e-06 2.6526482e-07)
(0.0012433358 2.9514822e-06 1.352533e-06)
(0.0095221617 0.00021179965 0.00022180581)
(0.009269783 0.00029872516 0.00026628967)
(0.0088657772 0.00031669844 0.00025526743)
(0.0083755729 0.000317438 0.00023864265)
(0.0078888426 0.00030841043 0.00021987851)
(0.0074276349 0.00028848207 0.00019850458)
(0.006988258 0.00026048391 0.00017617916)
(0.0065698164 0.00022855168 0.00015444521)
(0.0061756011 0.00019596771 0.00013413534)
(0.0058087146 0.00016504408 0.00011567593)
(0.0054706295 0.00013728621 9.9270838e-05)
(0.0051615551 0.00011345265 8.4947831e-05)
(0.0048808654 9.3684507e-05 7.2600737e-05)
(0.0046272998 7.7712989e-05 6.20449e-05)
(0.0043991196 6.5057026e-05 5.3064542e-05)
(0.0041942886 5.5163889e-05 4.544363e-05)
(0.0040106431 4.7493348e-05 3.8982754e-05)
(0.0038460219 4.1561377e-05 3.350638e-05)
(0.0036983537 3.6958194e-05 2.8864073e-05)
(0.0035657105 3.3351176e-05 2.4928486e-05)
(0.0034463343 3.0479502e-05 2.1592135e-05)
(0.003338646 2.8144768e-05 1.8764099e-05)
(0.003241243 2.6200155e-05 1.6367138e-05)
(0.0031528887 2.4539752e-05 1.4335369e-05)
(0.0030724986 2.3088867e-05 1.261249e-05)
(0.0029991252 2.1796114e-05 1.1150135e-05)
(0.0029319421 2.0626905e-05 9.9064814e-06)
(0.0028702292 1.9558163e-05 8.8458144e-06)
(0.0028133589 1.8574038e-05 7.9385368e-06)
(0.0027607855 1.7663623e-05 7.1598229e-06)
(0.0027120345 1.6818833e-05 6.4890358e-06)
(0.0026666927 1.6033066e-05 5.9090211e-06)
(0.0026243991 1.5301095e-05 5.4052717e-06)
(0.0025848383 1.461882e-05 4.9656524e-06)
(0.0025477347 1.3982714e-05 4.5801148e-06)
(0.0025128472 1.3389544e-05 4.2403267e-06)
(0.002479964 1.2836282e-05 3.9393555e-06)
(0.0024488994 1.2320058e-05 3.6714262e-06)
(0.0024194896 1.1838143e-05 3.4317261e-06)
(0.00239159 1.1387939e-05 3.2162511e-06)
(0.0023650729 1.0966985e-05 3.0216601e-06)
(0.0023398248 1.0572998e-05 2.8451737e-06)
(0.0023157449 1.0203873e-05 2.6844744e-06)
(0.0022927433 9.8575788e-06 2.537595e-06)
(0.0022707398 9.5322151e-06 2.402864e-06)
(0.002249662 9.2260285e-06 2.2788665e-06)
(0.0022294453 8.9374198e-06 2.1644e-06)
(0.0022100312 8.6649284e-06 2.058438e-06)
(0.0021913666 8.4072381e-06 1.9601005e-06)
(0.0021734038 8.1631559e-06 1.8686315e-06)
(0.0021560989 7.9316225e-06 1.7833675e-06)
(0.0021394122 7.7117254e-06 1.703708e-06)
(0.0021233074 7.5026033e-06 1.629151e-06)
(0.0021077512 7.3033788e-06 1.559284e-06)
(0.0020927129 7.1131865e-06 1.4937191e-06)
(0.0020781645 6.9314172e-06 1.4321035e-06)
(0.0020640799 6.7576055e-06 1.3741138e-06)
(0.0020504351 6.5912617e-06 1.3194622e-06)
(0.0020372075 6.4318784e-06 1.2678948e-06)
(0.0020243766 6.2790055e-06 1.2191863e-06)
(0.0020119231 6.1322409e-06 1.1731324e-06)
(0.001999829 5.9912206e-06 1.1295431e-06)
(0.0019880776 5.8556115e-06 1.0882498e-06)
(0.0019766531 5.7251044e-06 1.0490957e-06)
(0.0019655411 5.5994079e-06 1.0119376e-06)
(0.0019547276 5.4782454e-06 9.766459e-07)
(0.0019441999 5.3613912e-06 9.431009e-07)
(0.0019339458 5.2486481e-06 9.1119001e-07)
(0.0019239539 5.1398178e-06 8.8080668e-07)
(0.0019142135 5.0347019e-06 8.518595e-07)
(0.0019047144 4.9331191e-06 8.2425939e-07)
(0.001895447 4.8349001e-06 7.9792499e-07)
(0.0018864023 4.7398908e-06 7.7278019e-07)
(0.0018775718 4.6479429e-06 7.4875612e-07)
(0.0018689473 4.5589233e-06 7.2578741e-07)
(0.0018605211 4.4726996e-06 7.0381328e-07)
(0.0018522861 4.3891529e-06 6.82778e-07)
(0.0018442353 4.30817e-06 6.626267e-07)
(0.0018363621 4.2296376e-06 6.4330757e-07)
(0.0018286604 4.1534573e-06 6.247764e-07)
(0.0018211241 4.0795282e-06 6.069881e-07)
(0.0018137478 4.007754e-06 5.8990079e-07)
(0.0018065261 3.938037e-06 5.7347232e-07)
(0.001799454 3.8702796e-06 5.576667e-07)
(0.0017925266 3.8043827e-06 5.4244725e-07)
(0.0017857396 3.7402368e-06 5.2777824e-07)
(0.0017790885 3.6777259e-06 5.1362943e-07)
(0.0017725695 3.6167257e-06 4.9996997e-07)
(0.0017661787 3.5571067e-06 4.8677566e-07)
(0.0017599128 3.4987601e-06 4.7402556e-07)
(0.0017537682 3.441654e-06 4.6170956e-07)
(0.0017477416 3.3859631e-06 4.4983526e-07)
(0.0017418294 3.332382e-06 4.3844318e-07)
(0.0017360272 3.2827903e-06 4.276469e-07)
(0.0017303281 3.2417778e-06 4.1776887e-07)
(0.0017247202 3.2200419e-06 4.0999103e-07)
(0.001719183 3.2421573e-06 4.0984973e-07)
(0.001713691 3.3643439e-06 4.4114463e-07)
(0.0017081999 3.7072196e-06 4.7353402e-07)
(0.0016974804 4.4611211e-06 1.8634995e-06)
(0.0095012861 0.00013951169 0.00022248511)
(0.0092133349 0.00022408324 0.00026709763)
(0.0088018509 0.0002570094 0.00025529581)
(0.0083306071 0.00026690691 0.0002382081)
(0.0078754299 0.00026502159 0.00021939837)
(0.0074527063 0.0002529565 0.00019823245)
(0.0070564396 0.00023295893 0.00017634609)
(0.0066827538 0.00020836345 0.0001552305)
(0.006331873 0.00018203353 0.00013558338)
(0.0060047052 0.00015603739 0.00011769036)
(0.0057015056 0.00013180401 0.00010166909)
(0.0054220192 0.00011020724 8.7524314e-05)
(0.0051656909 9.1631899e-05 7.5171985e-05)
(0.0049316845 7.6091186e-05 6.4472617e-05)
(0.0047188814 6.3363142e-05 5.5261148e-05)
(0.0045259349 5.3104943e-05 4.7366821e-05)
(0.0043513547 4.4932758e-05 4.06249e-05)
(0.0041935865 3.847136e-05 3.4883033e-05)
(0.0040510752 3.3381245e-05 3.0003995e-05)
(0.0039223115 2.937051e-05 2.5866182e-05)
(0.0038058643 2.6197263e-05 2.2362868e-05)
(0.0037004012 2.3666732e-05 1.9400962e-05)
(0.0036047 2.1625758e-05 1.689961e-05)
(0.0035176529 1.9956327e-05 1.4788823e-05)
(0.0034382652 1.8569048e-05 1.3008105e-05)
(0.0033656513 1.7397363e-05 1.1504745e-05)
(0.0032990266 1.6392004e-05 1.0233523e-05)
(0.0032376995 1.5516242e-05 9.1565338e-06)
(0.0031810636 1.4743888e-05 8.2421111e-06)
(0.0031285885 1.4056153e-05 7.4635752e-06)
(0.0030798115 1.3438895e-05 6.7985205e-06)
(0.0030343294 1.2881152e-05 6.2282221e-06)
(0.0029917905 1.2374496e-05 5.7369825e-06)
(0.0029518882 1.1912421e-05 5.3116667e-06)
(0.0029143553 1.1489693e-05 4.941354e-06)
(0.0028789586 1.1101929e-05 4.6170005e-06)
(0.0028454946 1.074538e-05 4.3311223e-06)
(0.0028137847 1.0416775e-05 4.0775286e-06)
(0.0027836727 1.0113219e-05 3.8511081e-06)
(0.0027550209 9.8321216e-06 3.6476443e-06)
(0.0027277081 9.5711595e-06 3.4636637e-06)
(0.002701627 9.3282499e-06 3.2963012e-06)
(0.0026766823 9.1015154e-06 3.1431913e-06)
(0.0026527895 8.8892427e-06 3.0023823e-06)
(0.0026298729 8.689892e-06 2.8722554e-06)
(0.0026078647 8.5020897e-06 2.7514711e-06)
(0.002586704 8.3246192e-06 2.6389099e-06)
(0.0025663358 8.1563972e-06 2.5336418e-06)
(0.0025467102 7.9964769e-06 2.4348842e-06)
(0.002527782 7.8440285e-06 2.3419781e-06)
(0.0025095101 7.6983384e-06 2.2543608e-06)
(0.0024918566 7.5588113e-06 2.1715445e-06)
(0.0024747871 7.4248993e-06 2.0931114e-06)
(0.0024582699 7.2960212e-06 2.0187192e-06)
(0.0024422756 7.1714398e-06 1.9480687e-06)
(0.0024267775 7.0509283e-06 1.8808972e-06)
(0.0024117506 6.9343776e-06 1.8169513e-06)
(0.0023971715 6.8214906e-06 1.7560021e-06)
(0.0023830185 6.7119562e-06 1.6978522e-06)
(0.0023692714 6.605538e-06 1.6423293e-06)
(0.0023559116 6.5020445e-06 1.5892724e-06)
(0.0023429214 6.4013083e-06 1.5385379e-06)
(0.0023302844 6.3031801e-06 1.489994e-06)
(0.0023179851 6.2075255e-06 1.4435161e-06)
(0.0023060089 6.1142041e-06 1.3989934e-06)
(0.0022943424 6.0230679e-06 1.3563252e-06)
(0.0022829727 5.9340583e-06 1.3154162e-06)
(0.0022718877 5.8471292e-06 1.2761711e-06)
(0.002261076 5.7622038e-06 1.2385016e-06)
(0.0022505267 5.6791981e-06 1.2023306e-06)
(0.0022402296 5.5980425e-06 1.167583e-06)
(0.0022301752 5.5186707e-06 1.1341874e-06)
(0.0022203542 5.44103e-06 1.1020818e-06)
(0.002210758 5.3650619e-06 1.0711992e-06)
(0.0022013784 5.290718e-06 1.0414849e-06)
(0.0021922076 5.2179484e-06 1.0128816e-06)
(0.0021832381 5.1467095e-06 9.8533859e-07)
(0.0021744628 5.0769591e-06 9.5880436e-07)
(0.0021658752 5.0086496e-06 9.3323101e-07)
(0.0021574688 4.9417444e-06 9.0857363e-07)
(0.0021492375 4.876199e-06 8.8479047e-07)
(0.0021411756 4.8119667e-06 8.6183929e-07)
(0.0021332776 4.7489996e-06 8.3967849e-07)
(0.0021255383 4.6872396e-06 8.1827065e-07)
(0.0021179527 4.6266224e-06 7.9757714e-07)
(0.0021105161 4.5670676e-06 7.7756072e-07)
(0.0021032242 4.5084808e-06 7.5818495e-07)
(0.0020960727 4.4507545e-06 7.3941019e-07)
(0.0020890577 4.3937745e-06 7.2120281e-07)
(0.0020821756 4.3374534e-06 7.0352041e-07)
(0.002075423 4.2818109e-06 6.8632229e-07)
(0.0020687967 4.2271324e-06 6.6956166e-07)
(0.0020622937 4.174354e-06 6.532036e-07)
(0.002055911 4.1258141e-06 6.3726208e-07)
(0.0020496453 4.0868292e-06 6.2198509e-07)
(0.0020434926 4.0687778e-06 6.0874721e-07)
(0.0020374483 4.094878e-06 6.0452167e-07)
(0.0020315149 4.2094261e-06 6.3987894e-07)
(0.0020256647 4.4797485e-06 7.1688436e-07)
(0.0020144539 4.9057784e-06 2.2695258e-06)
(0.0094902877 9.6726608e-05 0.00022289229)
(0.00917661 0.00016632333 0.00026788105)
(0.0087449456 0.00019969046 0.00025550648)
(0.0082664657 0.00021101604 0.00023762681)
(0.00781215 0.0002109939 0.0002181603)
(0.0073950862 0.0002028236 0.00019646328)
(0.0070087986 0.00018827265 0.00017418493)
(0.006648835 0.00016968865 0.0001528463)
(0.0063142174 0.00014929331 0.00013312182)
(0.0060045996 0.00012875288 0.0001152379)
(0.0057192201 0.00010923291 9.9256791e-05)
(0.0054570682 9.149007e-05 8.5148909e-05)
(0.0052170782 7.5923398e-05 7.2816211e-05)
(0.0049981259 6.2643329e-05 6.2119133e-05)
(0.0047989841 5.1561151e-05 5.2900047e-05)
(0.0046183234 4.2472278e-05 4.4997976e-05)
(0.0044547458 3.5118726e-05 3.8256897e-05)
(0.0043068267 2.9230544e-05 3.2530442e-05)
(0.0041731526 2.4550833e-05 2.7684339e-05)
(0.0040523509 2.084911e-05 2.3597363e-05)
(0.0039431142 1.7926912e-05 2.0161346e-05)
(0.0038442168 1.56186e-05 1.7280682e-05)
(0.0037545253 1.3789366e-05 1.4871531e-05)
(0.0036730042 1.2331759e-05 1.2860862e-05)
(0.0035987172 1.1161539e-05 1.1185211e-05)
(0.0035308247 1.0213366e-05 9.7889739e-06)
(0.0034685786 9.4380832e-06 8.6250709e-06)
(0.0034113173 8.7971285e-06 7.6543143e-06)
(0.0033584589 8.2627208e-06 6.8439393e-06)
(0.0033094933 7.8140823e-06 6.1664548e-06)
(0.0032639753 7.4348244e-06 5.5988451e-06)
(0.0032215172 7.1121307e-06 5.1219267e-06)
(0.0031817817 6.8360969e-06 4.7197272e-06)
(0.0031444758 6.5990217e-06 4.3789725e-06)
(0.0031093448 6.394781e-06 4.0886808e-06)
(0.0030761678 6.2184049e-06 3.8397976e-06)
(0.0030447526 6.0657963e-06 3.6248786e-06)
(0.003014932 5.9335271e-06 3.4378177e-06)
(0.0029865602 5.8186975e-06 3.273619e-06)
(0.0029595097 5.7188193e-06 3.1282051e-06)
(0.002933669 5.6317492e-06 2.9982611e-06)
(0.00290894 5.5556258e-06 2.881097e-06)
(0.0028852364 5.4888242e-06 2.774533e-06)
(0.0028624815 5.4299135e-06 2.6768102e-06)
(0.0028406075 5.3776443e-06 2.5865048e-06)
(0.0028195538 5.3309233e-06 2.5024714e-06)
(0.0027992664 5.2888104e-06 2.4237888e-06)
(0.0027796963 5.2504839e-06 2.349711e-06)
(0.0027607998 5.2152429e-06 2.2796378e-06)
(0.002742537 5.1824996e-06 2.2130839e-06)
(0.0027248717 5.1517671e-06 2.1496535e-06)
(0.0027077708 5.1226693e-06 2.0890226e-06)
(0.002691204 5.0948957e-06 2.0309209e-06)
(0.0026751435 5.0680868e-06 1.9751367e-06)
(0.0026595636 5.0410664e-06 1.92154e-06)
(0.0026444411 5.0142587e-06 1.8699676e-06)
(0.002629754 4.9880181e-06 1.8202516e-06)
(0.0026154815 4.962074e-06 1.7722786e-06)
(0.0026016045 4.9361425e-06 1.7259593e-06)
(0.0025881054 4.9100857e-06 1.6812142e-06)
(0.0025749674 4.8838328e-06 1.6379661e-06)
(0.002562175 4.857339e-06 1.5961462e-06)
(0.0025497136 4.8305806e-06 1.555693e-06)
(0.0025375693 4.8035381e-06 1.5165484e-06)
(0.0025257292 4.7761753e-06 1.4786606e-06)
(0.002514181 4.748382e-06 1.4419853e-06)
(0.0025029134 4.7202736e-06 1.4064826e-06)
(0.0024919154 4.6919129e-06 1.3721013e-06)
(0.0024811765 4.6632893e-06 1.3387977e-06)
(0.002470687 4.634402e-06 1.306529e-06)
(0.0024604377 4.6052673e-06 1.2752601e-06)
(0.0024504197 4.5759076e-06 1.2449541e-06)
(0.0024406247 4.5463461e-06 1.2155772e-06)
(0.0024310448 4.5166012e-06 1.1870938e-06)
(0.0024216723 4.4866964e-06 1.1594728e-06)
(0.0024125001 4.4566506e-06 1.1326844e-06)
(0.0024035213 4.4264893e-06 1.1066979e-06)
(0.0023947295 4.3962288e-06 1.0814829e-06)
(0.0023861184 4.3658889e-06 1.0570129e-06)
(0.0023776821 4.335486e-06 1.033259e-06)
(0.0023694149 4.3050338e-06 1.0101963e-06)
(0.0023613115 4.274536e-06 9.8779544e-07)
(0.0023533667 4.243993e-06 9.6603026e-07)
(0.0023455757 4.2133959e-06 9.4487484e-07)
(0.0023379338 4.1827218e-06 9.2429938e-07)
(0.0023304365 4.1519265e-06 9.042761e-07)
(0.0023230798 4.1209533e-06 8.8477179e-07)
(0.0023158598 4.089724e-06 8.6575203e-07)
(0.0023087726 4.0581559e-06 8.4717262e-07)
(0.002301815 4.0261898e-06 8.2898075e-07)
(0.0022949838 3.993877e-06 8.1110645e-07)
(0.0022882766 3.96153e-06 7.9346272e-07)
(0.002281691 3.9300778e-06 7.7594424e-07)
(0.0022752261 3.9016908e-06 7.5847753e-07)
(0.002268882 3.8809388e-06 7.4124765e-07)
(0.0022626608 3.8766467e-06 7.2572717e-07)
(0.0022565686 3.9043035e-06 7.1957934e-07)
(0.0022506189 3.9866558e-06 7.5579988e-07)
(0.0022447715 4.1391006e-06 8.4931737e-07)
(0.002233564 4.2832268e-06 2.4122108e-06)
(0.0094843561 6.6886587e-05 0.00022303624)
(0.0091549219 0.00011904886 0.00026838771)
(0.0087072816 0.00014772497 0.00025588053)
(0.0082191888 0.00015892952 0.00023765677)
(0.0077602858 0.00016026049 0.00021787143)
(0.0073412804 0.00015505102 0.00019586613)
(0.0069552494 0.00014481701 0.00017327438)
(0.0065978366 0.00013121474 0.00015165024)
(0.0062677954 0.00011592881 0.00013169211)
(0.0059642872 0.00010028521 0.0001136244)
(0.0056860598 8.5214431e-05 9.7497522e-05)
(0.0054316726 7.1330406e-05 8.3272195e-05)
(0.0051997008 5.8984297e-05 7.0844883e-05)
(0.0049887459 4.8311752e-05 6.0073374e-05)
(0.0047973943 3.9291583e-05 5.079889e-05)
(0.0046242055 3.1804355e-05 4.2859902e-05)
(0.0044677269 2.5679087e-05 3.6099807e-05)
(0.0043265179 2.0725785e-05 3.0371291e-05)
(0.0041991724 1.6756344e-05 2.5538702e-05)
(0.004084339 1.3596838e-05 2.1479083e-05)
(0.0039807371 1.1093753e-05 1.8082324e-05)
(0.0038871692 9.1161635e-06 1.5250791e-05)
(0.0038025288 7.5553804e-06 1.2898647e-05)
(0.003725804 6.3231358e-06 1.0950986e-05)
(0.0036560786 5.3488195e-06 9.3426777e-06)
(0.0035925304 4.5751807e-06 8.0166145e-06)
(0.0035344253 3.9621001e-06 6.9239485e-06)
(0.0034811131 3.4726274e-06 6.0250724e-06)
(0.0034320221 3.0815199e-06 5.2862638e-06)
(0.0033866501 2.7702762e-06 4.6792104e-06)
(0.0033445586 2.5236731e-06 4.1805218e-06)
(0.0033053662 2.3295861e-06 3.7707533e-06)
(0.0032687419 2.1784972e-06 3.433746e-06)
(0.0032343982 2.0629055e-06 3.1561109e-06)
(0.0032020863 1.976809e-06 2.9267972e-06)
(0.0031715907 1.9153166e-06 2.7367042e-06)
(0.0031427248 1.8743797e-06 2.5783557e-06)
(0.0031153267 1.8506039e-06 2.4456295e-06)
(0.0030892563 1.8411254e-06 2.3335232e-06)
(0.0030643915 1.8434995e-06 2.2379666e-06)
(0.003040626 1.8556436e-06 2.1556636e-06)
(0.0030178671 1.8757794e-06 2.0839512e-06)
(0.0029960335 1.9023807e-06 2.0206934e-06)
(0.0029750538 1.9341342e-06 1.9641813e-06)
(0.0029548648 1.9699159e-06 1.9130519e-06)
(0.0029354109 2.0087619e-06 1.8662269e-06)
(0.0029166424 2.0498585e-06 1.8228523e-06)
(0.0028985148 2.0925101e-06 1.7822566e-06)
(0.0028809885 2.1361384e-06 1.7439142e-06)
(0.0028640277 2.180271e-06 1.7074102e-06)
(0.0028475999 2.2245516e-06 1.6724139e-06)
(0.0028316758 2.2687613e-06 1.6386549e-06)
(0.0028162284 2.312895e-06 1.6058718e-06)
(0.0028012324 2.3570801e-06 1.5738222e-06)
(0.0027866658 2.3978716e-06 1.543189e-06)
(0.0027725089 2.4362352e-06 1.5136873e-06)
(0.0027587418 2.4734397e-06 1.4848887e-06)
(0.002745346 2.5095348e-06 1.456701e-06)
(0.002732305 2.5443515e-06 1.4291152e-06)
(0.0027196032 2.5777727e-06 1.4021106e-06)
(0.0027072261 2.6097255e-06 1.3756635e-06)
(0.0026951602 2.6401661e-06 1.3497563e-06)
(0.0026833928 2.6690884e-06 1.3243752e-06)
(0.0026719116 2.6965031e-06 1.2995093e-06)
(0.0026607054 2.7223729e-06 1.2751519e-06)
(0.0026497635 2.7463538e-06 1.2513132e-06)
(0.002639076 2.7689063e-06 1.2279777e-06)
(0.0026286333 2.7901446e-06 1.2051285e-06)
(0.0026184262 2.8099921e-06 1.1827619e-06)
(0.0026084461 2.8284314e-06 1.1608701e-06)
(0.0025986849 2.8454928e-06 1.1394486e-06)
(0.0025891348 2.8612176e-06 1.1184901e-06)
(0.0025797885 2.875649e-06 1.0979863e-06)
(0.002570639 2.8888296e-06 1.0779292e-06)
(0.0025616795 2.9008062e-06 1.0583097e-06)
(0.0025529038 2.9116179e-06 1.0391192e-06)
(0.0025443058 2.9213136e-06 1.020349e-06)
(0.0025358796 2.9299288e-06 1.0019896e-06)
(0.0025276198 2.9375065e-06 9.8403284e-07)
(0.002519521 2.9440786e-06 9.6646552e-07)
(0.0025115783 2.9496814e-06 9.4928031e-07)
(0.0025037869 2.9543383e-06 9.3246181e-07)
(0.0024961421 2.9580671e-06 9.1600025e-07)
(0.0024886396 2.9608798e-06 8.9988006e-07)
(0.0024812752 2.9627731e-06 8.8408515e-07)
(0.002474045 2.9637218e-06 8.6859374e-07)
(0.0024669452 2.9636883e-06 8.5338161e-07)
(0.0024599723 2.9626125e-06 8.3841415e-07)
(0.0024531231 2.9604304e-06 8.2364408e-07)
(0.0024463945 2.9570962e-06 8.0900394e-07)
(0.0024397839 2.9526512e-06 7.9439888e-07)
(0.0024332894 2.9473512e-06 7.7969337e-07)
(0.0024269099 2.9419132e-06 7.6471008e-07)
(0.0024206457 2.937922e-06 7.4926011e-07)
(0.0024144993 2.9384186e-06 7.3336551e-07)
(0.0024084767 2.9484953e-06 7.1826511e-07)
(0.0024025877 2.9751243e-06 7.1113392e-07)
(0.002396846 3.0234614e-06 7.4331344e-07)
(0.0023911946 3.0808307e-06 8.3046604e-07)
(0.0023803644 3.057426e-06 2.2999433e-06)
(0.0094810492 4.4090137e-05 0.00022308885)
(0.0091422796 7.9975484e-05 0.00026874495)
(0.0086839084 0.00010160921 0.00025628771)
(0.0081880903 0.00011101591 0.00023793456)
(0.0077246858 0.00011275118 0.00021798622)
(0.0073029895 0.00010953687 0.00019578738)
(0.0069155191 0.00010266029 0.00017296032)
(0.0065579578 9.3267236e-05 0.0001510852)
(0.006229001 8.2539594e-05 0.00013089045)
(0.005927585 7.1446832e-05 0.00011261412)
(0.0056522063 6.067336e-05 9.6309238e-05)
(0.0054012005 5.0670807e-05 8.1936268e-05)
(0.0051729477 4.1706608e-05 6.9390832e-05)
(0.004965887 3.3898115e-05 5.8529098e-05)
(0.0047784814 2.7249955e-05 4.9189878e-05)
(0.0046092054 2.1693074e-05 4.1208773e-05)
(0.0044565535 1.7117437e-05 3.4426143e-05)
(0.0043190553 1.3395519e-05 2.8691659e-05)
(0.0041952917 1.0397812e-05 2.3866804e-05)
(0.0040839086 8.0023333e-06 1.9826011e-05)
(0.0039836292 6.0997705e-06 1.6456861e-05)
(0.0038932634 4.5956621e-06 1.3659716e-05)
(0.0038117126 3.410673e-06 1.1347013e-05)
(0.0037379734 2.4799297e-06 9.4422914e-06)
(0.0036711359 1.7515121e-06 7.8790887e-06)
(0.0036103859 1.1749046e-06 6.601033e-06)
(0.0035549935 7.2234093e-07 5.5561207e-06)
(0.0035043108 3.7342552e-07 4.7060688e-06)
(0.0034577717 1.0569676e-07 4.0163452e-06)
(0.0034148763 -9.9089874e-08 3.4574136e-06)
(0.0033751872 -2.5333655e-07 3.0054955e-06)
(0.0033383243 -3.6639954e-07 2.6409737e-06)
(0.0033039576 -4.457788e-07 2.3475731e-06)
(0.0032718009 -4.9748406e-07 2.1118263e-06)
(0.0032416065 -5.2634578e-07 1.9226416e-06)
(0.0032131599 -5.3630998e-07 1.7709156e-06)
(0.0031862758 -5.3064017e-07 1.649203e-06)
(0.0031607936 -5.1206277e-07 1.5514414e-06)
(0.0031365743 -4.8287121e-07 1.4727105e-06)
(0.0031134976 -4.4500718e-07 1.409033e-06)
(0.0030914586 -4.0011124e-07 1.3572049e-06)
(0.0030703663 -3.4957968e-07 1.3146551e-06)
(0.0030501409 -2.945955e-07 1.2793306e-06)
(0.0030307129 -2.3616955e-07 1.2495923e-06)
(0.0030120207 -1.7516586e-07 1.2241403e-06)
(0.0029940105 -1.1232091e-07 1.2019522e-06)
(0.0029766343 -4.8267276e-08 1.1822233e-06)
(0.0029598495 1.645083e-08 1.1643215e-06)
(0.0029436181 8.135685e-08 1.1477522e-06)
(0.002927906 1.4602482e-07 1.1321247e-06)
(0.0029126825 2.100594e-07 1.1171188e-06)
(0.0028979201 2.730486e-07 1.1024395e-06)
(0.0028835935 3.3454134e-07 1.0876603e-06)
(0.0028696773 3.9432353e-07 1.072203e-06)
(0.0028561514 4.5704914e-07 1.0590096e-06)
(0.0028429997 5.2060072e-07 1.0472571e-06)
(0.0028302035 5.8225409e-07 1.0356076e-06)
(0.0028177449 6.4163807e-07 1.0238006e-06)
(0.0028056084 6.9901925e-07 1.0118736e-06)
(0.0027937799 7.5456169e-07 9.9986753e-07)
(0.0027822461 8.0835039e-07 9.8780988e-07)
(0.0027709946 8.6046894e-07 9.7571892e-07)
(0.0027600137 9.1102571e-07 9.6360317e-07)
(0.0027492926 9.6019637e-07 9.5144703e-07)
(0.0027388207 1.008006e-06 9.3926638e-07)
(0.0027285887 1.0528503e-06 9.2746625e-07)
(0.0027185878 1.095866e-06 9.1582808e-07)
(0.0027088089 1.1375003e-06 9.0425262e-07)
(0.0026992438 1.1777658e-06 8.927598e-07)
(0.0026898847 1.2166565e-06 8.8136552e-07)
(0.0026807244 1.2541695e-06 8.7008035e-07)
(0.0026717559 1.2903141e-06 8.5890702e-07)
(0.0026629726 1.325108e-06 8.4785288e-07)
(0.0026543682 1.3585734e-06 8.3692345e-07)
(0.0026459367 1.3907401e-06 8.2612215e-07)
(0.0026376723 1.4216345e-06 8.1545418e-07)
(0.0026295698 1.4512894e-06 8.0491894e-07)
(0.0026216238 1.4797317e-06 7.9452274e-07)
(0.0026138294 1.5069921e-06 7.8426328e-07)
(0.002606182 1.533094e-06 7.7414019e-07)
(0.0025986769 1.5580641e-06 7.6415246e-07)
(0.0025913099 1.5819218e-06 7.5429611e-07)
(0.0025840769 1.6046809e-06 7.4456478e-07)
(0.0025769739 1.6263479e-06 7.3495279e-07)
(0.0025699972 1.646921e-06 7.2544748e-07)