/*--------------------------------*- C++ -*----------------------------------*\
  =========                 |
  \\      /  F ield         | OpenFOAM: The Open Source CFD Toolbox
   \\    /   O peration     | Website:  https://openfoam.org
    \\  /    A nd           | Version:  7
     \\/     M anipulation  |
\*---------------------------------------------------------------------------*/
FoamFile
{
    version     2.0;
    format      ascii;
    class       surfaceScalarField;
    location    "1250/water";
    object      phi;
}
// * * * * * * * * * * * * * * * * * * * * * * * * * * * * * * * * * * * * * //

dimensions      [1 0 -1 0 0 0 0];

internalField   nonuniform List<scalar> 
156660
(
9.9057239e-05
6.0010402e-06
6.0528092e-06
8.6847498e-05
6.0555113e-06
6.1542307e-06
7.5687891e-05
5.5111363e-06
5.6484701e-06
6.5441704e-05
5.0404182e-06
5.2057689e-06
5.6267661e-05
4.4956436e-06
4.6783991e-06
4.8318019e-05
3.8797648e-06
4.0698777e-06
4.1624776e-05
3.2524448e-06
3.4407981e-06
3.6124897e-05
2.660462e-06
2.839417e-06
3.1692235e-05
2.1345126e-06
2.2981489e-06
2.8162841e-05
1.6926974e-06
1.8366964e-06
2.5361437e-05
1.3399933e-06
1.4614113e-06
2.3124664e-05
1.0698477e-06
1.1669256e-06
2.1315127e-05
8.6875419e-07
9.4078226e-07
1.9825714e-05
7.2110063e-07
7.6831274e-07
1.8577278e-05
6.1248242e-07
6.3595307e-07
1.7513255e-05
5.3125221e-07
5.3277146e-07
1.6593744e-05
4.6879724e-07
4.5071349e-07
1.5790433e-05
4.1913715e-07
3.8417386e-07
1.5082784e-05
3.782907e-07
3.2935849e-07
1.4455417e-05
3.4367125e-07
2.8369561e-07
1.3896409e-05
3.1361409e-07
2.4539333e-07
1.339622e-05
2.8704448e-07
2.1314451e-07
1.2947015e-05
2.6326031e-07
1.8594508e-07
1.2542237e-05
2.4179366e-07
1.6298461e-07
1.2176318e-05
2.2232208e-07
1.4359692e-07
1.1844484e-05
2.0461483e-07
1.2721882e-07
1.1542609e-05
1.8849496e-07
1.1337974e-07
1.1267116e-05
1.7381573e-07
1.0167795e-07
1.1014892e-05
1.604627e-07
9.1760833e-08
1.0783252e-05
1.4833968e-07
8.330061e-08
1.0569851e-05
1.3734904e-07
7.6052137e-08
1.0372614e-05
1.2738865e-07
6.9848288e-08
1.0189731e-05
1.1836811e-07
6.4514829e-08
1.001963e-05
1.1020447e-07
5.9896623e-08
9.8609388e-06
1.0281922e-07
5.5871685e-08
9.7124594e-06
9.6137941e-08
5.2341377e-08
9.5731439e-06
9.0091154e-08
4.9224358e-08
9.4420759e-06
8.4614473e-08
4.6453582e-08
9.3184531e-06
7.9648681e-08
4.3974095e-08
9.2015723e-06
7.5139721e-08
4.1741076e-08
9.0908166e-06
7.1038161e-08
3.9717548e-08
8.9856432e-06
6.7301139e-08
3.7872301e-08
8.8855707e-06
6.3894277e-08
3.6178135e-08
8.7901757e-06
6.0780106e-08
3.4614935e-08
8.6990829e-06
5.7926164e-08
3.3166677e-08
8.611959e-06
5.5303708e-08
3.1820114e-08
8.5285072e-06
5.2887425e-08
3.0564426e-08
8.4484618e-06
5.0655066e-08
2.9390281e-08
8.3715847e-06
4.8587037e-08
2.829002e-08
8.2976614e-06
4.6666144e-08
2.7257183e-08
8.2264975e-06
4.4877451e-08
2.6286436e-08
8.1579202e-06
4.3208757e-08
2.5368519e-08
8.0917731e-06
4.1649026e-08
2.4498048e-08
8.0279107e-06
4.0187008e-08
2.3675345e-08
7.9662005e-06
3.8812669e-08
2.2897543e-08
7.9065219e-06
3.7518388e-08
2.2160229e-08
7.8487639e-06
3.6297872e-08
2.1460126e-08
7.7928241e-06
3.5145165e-08
2.079463e-08
7.7386083e-06
3.4054666e-08
2.0161164e-08
7.6860293e-06
3.3021339e-08
1.9557703e-08
7.6350062e-06
3.2040786e-08
1.8982232e-08
7.5854641e-06
3.1109036e-08
1.8433059e-08
7.537333e-06
3.0222609e-08
1.7908488e-08
7.4905477e-06
2.9378252e-08
1.7406966e-08
7.4450476e-06
2.857301e-08
1.6927187e-08
7.4007755e-06
2.7804249e-08
1.646777e-08
7.3576783e-06
2.7069572e-08
1.6027612e-08
7.3157056e-06
2.6367041e-08
1.5605605e-08
7.2748103e-06
2.5694666e-08
1.520068e-08
7.2349479e-06
2.5050575e-08
1.4811845e-08
7.1960766e-06
2.44331e-08
1.4438199e-08
7.158157e-06
2.3840684e-08
1.4078924e-08
7.1211518e-06
2.3271936e-08
1.3733289e-08
7.0850258e-06
2.2725515e-08
1.3400532e-08
7.0497456e-06
2.2200234e-08
1.3079926e-08
7.0152798e-06
2.1694915e-08
1.2770909e-08
6.9815985e-06
2.1208573e-08
1.2472759e-08
6.9486733e-06
2.0740232e-08
1.2184912e-08
6.9164775e-06
2.0288964e-08
1.1906797e-08
6.8849857e-06
1.985394e-08
1.1637812e-08
6.8541739e-06
1.9434347e-08
1.1377442e-08
6.8240193e-06
1.902943e-08
1.1125079e-08
6.7945006e-06
1.8638501e-08
1.0880265e-08
6.7655975e-06
1.8260776e-08
1.0642307e-08
6.7372912e-06
1.7895545e-08
1.0410747e-08
6.709564e-06
1.7542089e-08
1.0185104e-08
6.6823995e-06
1.7199659e-08
9.9648936e-09
6.6557824e-06
1.6867264e-08
9.7498097e-09
6.6296983e-06
1.6544114e-08
9.539971e-09
6.6041331e-06
1.6229256e-08
9.3359986e-09
6.5790714e-06
1.5921943e-08
9.1396592e-09
6.554494e-06
1.5622327e-08
8.9550994e-09
6.5303708e-06
1.5332537e-08
8.7906767e-09
6.5066467e-06
1.5060457e-08
8.6635896e-09
6.4832094e-06
1.4827806e-08
8.6094918e-09
6.4598103e-06
1.4693074e-08
8.7060287e-09
6.4358387e-06
1.4826429e-08
9.1451359e-09
6.4096302e-06
1.574177e-08
1.0466745e-08
6.3782855e-06
1.8026568e-08
1.3318223e-08
3.2300222e-08
2.792353e-08
0.00010646494
4.1872385e-06
6.4599816e-06
0.0001002019
5.695418e-06
6.6231353e-06
9.3659588e-05
5.7790389e-06
6.2744098e-06
8.7011589e-05
5.6514782e-06
6.0369387e-06
8.0422927e-05
5.3669119e-06
5.7173941e-06
7.4094022e-05
4.9022832e-06
5.3063862e-06
6.8167026e-05
4.3278135e-06
4.8516272e-06
6.2722565e-05
3.717891e-06
4.387032e-06
5.7799049e-05
3.1243144e-06
3.9337144e-06
5.3403345e-05
2.5820689e-06
3.5063329e-06
4.9517402e-05
2.1121062e-06
3.1138299e-06
4.6105482e-05
1.7220197e-06
2.7597473e-06
4.3121558e-05
1.4089355e-06
2.4437429e-06
4.0515558e-05
1.1637552e-06
2.163346e-06
3.8237948e-05
9.7485849e-07
1.9152336e-06
3.6242683e-05
8.3055976e-07
1.6959573e-06
3.4488759e-05
7.2043693e-07
1.5022849e-06
3.2940716e-05
6.3586294e-07
1.3313172e-06
3.1568463e-05
5.7005005e-07
1.1804931e-06
3.0346733e-05
5.1784897e-07
1.0475522e-06
2.9254398e-05
4.7545953e-07
9.3049033e-07
2.8273782e-05
4.401396e-07
8.2752023e-07
2.7390054e-05
4.0994894e-07
7.3704008e-07
2.6590699e-05
3.8353956e-07
6.5760857e-07
2.5865102e-05
3.5998888e-07
5.8793074e-07
2.5204197e-05
3.3867631e-07
5.2684258e-07
2.4600205e-05
3.1918362e-07
4.7330346e-07
2.4046429e-05
3.0120193e-07
4.2639018e-07
2.3537073e-05
2.8455205e-07
3.8526716e-07
2.3067119e-05
2.6911103e-07
3.491824e-07
2.2632208e-05
2.5478167e-07
3.1747785e-07
2.2228528e-05
2.4147384e-07
2.8959529e-07
2.1852744e-05
2.2911073e-07
2.6504125e-07
2.1501947e-05
2.1762892e-07
2.4337257e-07
2.1173591e-05
2.0696951e-07
2.2420571e-07
2.0865444e-05
1.9707567e-07
2.0720867e-07
2.0575549e-05
1.8789252e-07
1.9209398e-07
2.0302183e-05
1.7936725e-07
1.7861348e-07
2.0043829e-05
1.714491e-07
1.6655324e-07
1.979915e-05
1.6408983e-07
1.5572944e-07
1.956696e-05
1.5724382e-07
1.4598405e-07
1.934621e-05
1.5086896e-07
1.3718217e-07
1.9135969e-05
1.4492652e-07
1.2920882e-07
1.8935407e-05
1.3937906e-07
1.2196308e-07
1.8743783e-05
1.341923e-07
1.1535764e-07
1.8560435e-05
1.2933504e-07
1.0931727e-07
1.8384766e-05
1.2477906e-07
1.0377715e-07
1.8216241e-05
1.2049852e-07
9.8681305e-08
1.8054377e-05
1.1647011e-07
9.3981317e-08
1.7898734e-05
1.126729e-07
8.9635433e-08
1.7748917e-05
1.0908823e-07
8.5607028e-08
1.7604563e-05
1.0570006e-07
8.1862422e-08
1.7465345e-05
1.0249336e-07
7.8373293e-08
1.7330962e-05
9.9452969e-08
7.5117015e-08
1.7201138e-05
9.656439e-08
7.207274e-08
1.7075619e-05
9.3816644e-08
6.9221145e-08
1.695417e-05
9.1201112e-08
6.6545111e-08
1.6836577e-05
8.8709116e-08
6.4029551e-08
1.6722638e-05
8.633197e-08
6.1661043e-08
1.661217e-05
8.4061756e-08
5.9427705e-08
1.6505001e-05
8.1891526e-08
5.7318802e-08
1.640097e-05
7.9814923e-08
5.532485e-08
1.6299929e-05
7.7826134e-08
5.3437136e-08
1.620174e-05
7.5919835e-08
5.1647909e-08
1.6106272e-05
7.4091035e-08
4.995011e-08
1.6013404e-05
7.2334981e-08
4.8337366e-08
1.5923022e-05
7.0647743e-08
4.6803882e-08
1.5835019e-05
6.9025732e-08
4.5344288e-08
1.5749294e-05
6.7465524e-08
4.3953702e-08
1.5665753e-05
6.5963788e-08
4.2627699e-08
1.5584307e-05
6.4517364e-08
4.136216e-08
1.5504871e-05
6.3123424e-08
4.0153345e-08
1.5427365e-05
6.1779312e-08
3.8997781e-08
1.5351716e-05
6.0482567e-08
3.7892305e-08
1.5277852e-05
5.9230856e-08
3.6833855e-08
1.5205705e-05
5.802198e-08
3.5819755e-08
1.5135212e-05
5.6853988e-08
3.4847371e-08
1.5066313e-05
5.5724961e-08
3.3914357e-08
1.499895e-05
5.4633146e-08
3.3018416e-08
1.493307e-05
5.3576709e-08
3.2157426e-08
1.4868621e-05
5.255414e-08
3.1329422e-08
1.4805554e-05
5.1563911e-08
3.0532433e-08
1.4743823e-05
5.0604516e-08
2.9764657e-08
1.4683386e-05
4.9674309e-08
2.9024362e-08
1.4624199e-05
4.8771812e-08
2.8309877e-08
1.4566226e-05
4.7895465e-08
2.7619569e-08
1.4509431e-05
4.7043503e-08
2.695199e-08
1.4453778e-05
4.6214134e-08
2.6305749e-08
1.4399237e-05
4.5405386e-08
2.5679878e-08
1.4345777e-05
4.4615699e-08
2.5073779e-08
1.4293367e-05
4.3844237e-08
2.4487698e-08
1.4241972e-05
4.3092881e-08
2.3923745e-08
1.4191548e-05
4.2369901e-08
2.3387146e-08
1.4142019e-05
4.169932e-08
2.2889622e-08
1.4093249e-05
4.1141625e-08
2.245661e-08
1.4044951e-05
4.0844646e-08
2.2146552e-08
1.3996485e-05
4.1169163e-08
2.2123036e-08
1.3946229e-05
4.3012281e-08
2.2985396e-08
1.389015e-05
4.8540248e-08
2.556579e-08
6.3281566e-08
5.0000854e-08
0.00010603565
2.7876425e-06
6.4750379e-06
0.00010074799
4.4145413e-06
6.5685292e-06
9.5493515e-05
4.8594028e-06
6.1741158e-06
9.0256432e-05
4.930369e-06
5.9581921e-06
8.5101366e-05
4.8311767e-06
5.6908012e-06
8.0102875e-05
4.5561762e-06
5.3445981e-06
7.5322251e-05
4.1469521e-06
4.9614853e-06
7.0803266e-05
3.6678925e-06
4.5689837e-06
6.6576264e-05
3.1701903e-06
4.1811254e-06
6.2660725e-05
2.6900109e-06
3.8075976e-06
5.9065443e-05
2.2519318e-06
3.4554566e-06
5.5788936e-05
1.8697303e-06
3.1287957e-06
5.2820978e-05
1.5477473e-06
2.8291458e-06
5.014479e-05
1.2836302e-06
2.5563139e-06
4.7739304e-05
1.07123e-06
2.3091141e-06
4.5581183e-05
9.0281503e-07
2.0858661e-06
4.3646423e-05
7.7048782e-07
1.884709e-06
4.1911533e-05
6.6697373e-07
1.7037792e-06
4.0354306e-05
5.8598196e-07
1.541295e-06
3.8954268e-05
5.2230223e-07
1.3955849e-06
3.769288e-05
4.7175604e-07
1.265091e-06
3.6553576e-05
4.3107984e-07
1.1483634e-06
3.552169e-05
3.9778207e-07
1.0440533e-06
3.4584322e-05
3.6999883e-07
9.509083e-07
3.3730181e-05
3.4635988e-07
8.6777018e-07
3.2949411e-05
3.2587762e-07
7.9356871e-07
3.2233419e-05
3.0784047e-07
7.2733485e-07
3.1574711e-05
2.9172985e-07
6.6818103e-07
3.0966769e-05
2.7719264e-07
6.1530129e-07
3.0403928e-05
2.6398101e-07
5.679702e-07
2.9881258e-05
2.5190846e-07
5.2554312e-07
2.9394455e-05
2.4082713e-07
4.8744998e-07
2.8939761e-05
2.3062158e-07
4.5318327e-07
2.8513895e-05
2.2120154e-07
4.2229385e-07
2.8113985e-05
2.1249194e-07
3.9438675e-07
2.7737518e-05
2.0442797e-07
3.691149e-07
2.7382285e-05
1.9695193e-07
3.4617383e-07
2.7046344e-05
1.9001179e-07
3.2529682e-07
2.6727982e-05
1.8355993e-07
3.0625044e-07
2.6425689e-05
1.7755274e-07
2.8883088e-07
2.6138123e-05
1.7195003e-07
2.7285985e-07
2.5864094e-05
1.6671516e-07
2.5818184e-07
2.5602546e-05
1.6181453e-07
2.4466093e-07
2.535253e-05
1.5721709e-07
2.3217767e-07
2.51132e-05
1.5289442e-07
2.2062728e-07
2.4883797e-05
1.4882098e-07
2.0991773e-07
2.4663634e-05
1.4497363e-07
1.9996812e-07
2.4452094e-05
1.4133182e-07
1.9070708e-07
2.4248615e-05
1.3787695e-07
1.8207152e-07
2.405269e-05
1.3459264e-07
1.740057e-07
2.3863854e-05
1.3146459e-07
1.6645989e-07
2.3681684e-05
1.2848057e-07
1.5938923e-07
2.3505794e-05
1.256292e-07
1.5275413e-07
2.3335829e-05
1.228987e-07
1.465197e-07
2.3171462e-05
1.2027637e-07
1.4065461e-07
2.3012394e-05
1.1775476e-07
1.351302e-07
2.2858345e-05
1.1532974e-07
1.2992043e-07
2.2709057e-05
1.1299538e-07
1.2500174e-07
2.2564291e-05
1.1074516e-07
1.2035287e-07
2.2423824e-05
1.0857345e-07
1.1595461e-07
2.2287451e-05
1.064755e-07
1.1178926e-07
2.2154978e-05
1.04447e-07
1.0784082e-07
2.2026226e-05
1.0248419e-07
1.040946e-07
2.1901025e-05
1.005835e-07
1.0053717e-07
2.1779218e-05
9.8741512e-08
9.7156165e-08
2.1660658e-05
9.6954891e-08
9.3940277e-08
2.1545205e-05
9.5221287e-08
9.0879052e-08
2.1432729e-05
9.35388e-08
8.7962822e-08
2.1323107e-05
9.1905326e-08
8.5182633e-08
2.1216222e-05
9.0318543e-08
8.253018e-08
2.1111965e-05
8.8776428e-08
7.999789e-08
2.1010233e-05
8.7277106e-08
7.7578641e-08
2.0910927e-05
8.5818955e-08
7.5265873e-08
2.0813956e-05
8.4400323e-08
7.3053434e-08
2.0719232e-05
8.3019694e-08
7.0935666e-08
2.0626671e-05
8.1675646e-08
6.8907215e-08
2.0536195e-05
8.0366822e-08
6.6963114e-08
2.0447729e-05
7.9091961e-08
6.5098746e-08
2.0361203e-05
7.7849824e-08
6.330975e-08
2.0276548e-05
7.6639207e-08
6.1592032e-08
2.0193702e-05
7.5458989e-08
5.9941734e-08
2.0112602e-05
7.4307965e-08
5.8355229e-08
2.0033193e-05
7.3184955e-08
5.6829051e-08
1.9955419e-05
7.2088607e-08
5.5359942e-08
1.9879228e-05
7.1017679e-08
5.394484e-08
1.9804572e-05
6.9970444e-08
5.258073e-08
1.9731406e-05
6.8945231e-08
5.1264806e-08
1.9659685e-05
6.7940102e-08
4.9994391e-08
1.9589371e-05
6.6952998e-08
4.8767014e-08
1.9520423e-05
6.5982338e-08
4.7580546e-08
1.9452807e-05
6.5028001e-08
4.6433078e-08
1.9386482e-05
6.409413e-08
4.5323752e-08
1.9321404e-05
6.3194684e-08
4.4253079e-08
1.9257511e-05
6.2366316e-08
4.3225229e-08
1.9194705e-05
6.1695187e-08
4.2253143e-08
1.9132798e-05
6.1374069e-08
4.1377411e-08
1.9071394e-05
6.18224e-08
4.0750654e-08
1.9009424e-05
6.3924725e-08
4.1057572e-08
1.8944661e-05
6.930466e-08
4.3998808e-08
7.9170937e-08
7.4661526e-08
0.0001054937
1.9169871e-06
6.4880406e-06
0.00010005365
3.2729596e-06
6.5816334e-06
9.4926077e-05
3.8288995e-06
6.1580776e-06
8.9946373e-05
3.9838108e-06
5.9262629e-06
8.5163276e-05
3.9595077e-06
5.6547657e-06
8.0619137e-05
3.7899369e-06
5.3103784e-06
7.6329462e-05
3.5015547e-06
4.9350725e-06
7.230016e-05
3.1412013e-06
4.5559928e-06
6.8534206e-05
2.7514802e-06
4.1846641e-06
6.5032983e-05
2.3633493e-06
3.8278852e-06
6.1795789e-05
1.9984143e-06
3.490711e-06
5.8818843e-05
1.6703759e-06
3.176301e-06
5.6094717e-05
1.3858295e-06
2.886043e-06
5.3612488e-05
1.1457945e-06
2.6200649e-06
5.1358373e-05
9.4764117e-07
2.3777043e-06
4.9316593e-05
7.8676783e-07
2.1578272e-06
4.7470246e-05
6.5779546e-07
1.9590391e-06
4.5802069e-05
5.5532538e-07
1.7798252e-06
4.4295042e-05
4.7437109e-07
1.6186378e-06
4.293283e-05
4.1056666e-07
1.473948e-06
4.1700078e-05
3.6023236e-07
1.3442759e-06
4.0582591e-05
3.2035741e-07
1.2282094e-06
3.956742e-05
2.8853735e-07
1.1244154e-06
3.8642881e-05
2.6289066e-07
1.0316467e-06
3.7798527e-05
2.4196985e-07
9.48744e-07
3.7025076e-05
2.2467706e-07
8.7465171e-07
3.6314324e-05
2.1018903e-07
8.0840411e-07
3.5659057e-05
1.9788607e-07
7.491104e-07
3.5052961e-05
1.8731586e-07
6.9597282e-07
3.4490519e-05
1.7814872e-07
6.4827382e-07
3.3966922e-05
1.7013168e-07
6.0537439e-07
3.3477973e-05
1.6306728e-07
5.6670866e-07
3.3020016e-05
1.5680295e-07
5.3177541e-07
3.2589865e-05
1.5122053e-07
5.0013242e-07
3.218474e-05
1.4622562e-07
4.7139136e-07
3.1802215e-05
1.4174073e-07
4.4521231e-07
3.1440168e-05
1.3770095e-07
4.2129807e-07
3.1096739e-05
1.3405092e-07
3.9938922e-07
3.0770297e-05
1.3074293e-07
3.7925952e-07
3.0459402e-05
1.2773518e-07
3.6071196e-07
3.0162787e-05
1.2499093e-07
3.4357478e-07
2.9879325e-05
1.2247785e-07
3.2769852e-07
2.960802e-05
1.2016732e-07
3.1295273e-07
2.934798e-05
1.180338e-07
2.9922352e-07
2.9098408e-05
1.1605464e-07
2.8641137e-07
2.885859e-05
1.1420981e-07
2.7442904e-07
2.8627882e-05
1.1248191e-07
2.6319999e-07
2.8405701e-05
1.1085557e-07
2.5265686e-07
2.819152e-05
1.0931754e-07
2.4274021e-07
2.7984859e-05
1.0785648e-07
2.3339754e-07
2.7785279e-05
1.0646277e-07
2.2458212e-07
2.7592378e-05
1.051287e-07
2.1625213e-07
2.740579e-05
1.0384737e-07
2.0837034e-07
2.7225174e-05
1.0261119e-07
2.0090361e-07
2.705022e-05
1.0140749e-07
1.938226e-07
2.6880641e-05
1.0023383e-07
1.8710041e-07
2.6716166e-05
9.9092367e-08
1.8071223e-07
2.6556546e-05
9.798001e-08
1.7463555e-07
2.6401548e-05
9.6892534e-08
1.6885012e-07
2.6250957e-05
9.5827087e-08
1.6333739e-07
2.610457e-05
9.4781697e-08
1.5808043e-07
2.5962199e-05
9.3754703e-08
1.5306365e-07
2.5823666e-05
9.274486e-08
1.482726e-07
2.5688804e-05
9.1750987e-08
1.4369413e-07
2.5557458e-05
9.0771751e-08
1.3931601e-07
2.5429481e-05
8.980516e-08
1.3512694e-07
2.5304734e-05
8.8851455e-08
1.3111647e-07
2.5183087e-05
8.7911248e-08
1.2727467e-07
2.5064416e-05
8.6983945e-08
1.2359243e-07
2.4948604e-05
8.6068944e-08
1.2006118e-07
2.4835542e-05
8.5165822e-08
1.1667301e-07
2.4725124e-05
8.4274366e-08
1.1342048e-07
2.4617252e-05
8.3394274e-08
1.1029657e-07
2.4511832e-05
8.252545e-08
1.0729476e-07
2.4408775e-05
8.1667782e-08
1.04409e-07
2.4307997e-05
8.0820984e-08
1.0163344e-07
2.4209416e-05
7.9985012e-08
9.8962659e-08
2.4112956e-05
7.9159719e-08
9.6391546e-08
2.4018546e-05
7.8345001e-08
9.3915273e-08
2.3926115e-05
7.7540695e-08
9.1529305e-08
2.3835598e-05
7.6746559e-08
8.9229256e-08
2.3746933e-05
7.5962346e-08
8.7011018e-08
2.366006e-05
7.5187624e-08
8.4870707e-08
2.3574922e-05
7.4421973e-08
8.2804556e-08
2.3491466e-05
7.3664577e-08
8.0808891e-08
2.3409641e-05
7.2914642e-08
7.8880352e-08
2.33294e-05
7.2170667e-08
7.7015489e-08
2.3250698e-05
7.1431293e-08
7.5210991e-08
2.3173492e-05
7.0694845e-08
7.3463626e-08
2.3097745e-05
6.9960185e-08
7.1770061e-08
2.3023418e-05
6.922798e-08
7.0127026e-08
2.2950477e-05
6.8503497e-08
6.8531167e-08
2.2878889e-05
6.7802894e-08
6.6979701e-08
2.2808619e-05
6.7165059e-08
6.5471569e-08
2.2739625e-05
6.667526e-08
6.4013324e-08
2.267185e-05
6.6507083e-08
6.2642305e-08
2.2605149e-05
6.6990696e-08
6.1532352e-08
2.2538888e-05
6.868601e-08
6.1499881e-08
2.2471121e-05
7.2226938e-08
6.4845123e-08
7.6722836e-08
9.8461337e-08
0.0001051979
1.3340884e-06
6.4961221e-06
9.9496561e-05
2.3731022e-06
6.6011947e-06
9.4262459e-05
2.9019223e-06
6.1610799e-06
8.9251186e-05
3.0856641e-06
5.9094196e-06
8.4493498e-05
3.0947347e-06
5.6224614e-06
8.0033635e-05
2.9846657e-06
5.2651341e-06
7.5876907e-05
2.7790155e-06
4.8792667e-06
7.2014635e-05
2.5106844e-06
4.4927895e-06
6.8436293e-05
2.2128728e-06
4.1169489e-06
6.5131387e-05
1.9107258e-06
3.7575291e-06
6.208941e-05
1.621732e-06
3.4186596e-06
5.9299432e-05
1.3573878e-06
3.1029661e-06
5.6749589e-05
1.1240344e-06
2.8116386e-06
5.4426788e-05
9.2377944e-07
2.5448158e-06
5.2316754e-05
7.5572797e-07
2.3019466e-06
5.0404313e-05
6.1717852e-07
2.0820302e-06
4.8673788e-05
5.0454349e-07
1.8837772e-06
4.7109414e-05
4.1397178e-07
1.7057274e-06
4.5695713e-05
3.4173648e-07
1.5463363e-06
4.4417792e-05
2.8445144e-07
1.4040359e-06
4.3261575e-05
2.3917112e-07
1.277278e-06
4.2213952e-05
2.0341504e-07
1.1645652e-06
4.1262871e-05
1.7514744e-07
1.0644719e-06
4.039737e-05
1.5273233e-07
9.7565899e-07
3.9607583e-05
1.3487528e-07
8.9688143e-07
3.8884688e-05
1.2055568e-07
8.2701639e-07
3.8220848e-05
1.090109e-07
7.6501856e-07
3.7609155e-05
9.9633859e-08
7.0994489e-07
3.7043542e-05
9.1977437e-08
6.6095091e-07
3.6518702e-05
8.5705807e-08
6.172829e-07
3.6030009e-05
8.0552394e-08
5.7827311e-07
3.5573433e-05
7.6308292e-08
5.4333413e-07
3.5145475e-05
7.2811272e-08
5.119503e-07
3.4743091e-05
6.9934109e-08
4.8367023e-07
3.4363641e-05
6.7575446e-08
4.5810066e-07
3.4004828e-05
6.5652878e-08
4.3489998e-07
3.3664659e-05
6.40986e-08
4.137721e-07
3.3341393e-05
6.2855915e-08
3.9446094e-07
3.3033513e-05
6.1877031e-08
3.7674527e-07
3.2739693e-05
6.1121117e-08
3.6043426e-07
3.2458768e-05
6.0553048e-08
3.4536327e-07
3.2189712e-05
6.014265e-08
3.3139059e-07
3.1931622e-05
5.9863625e-08
3.1839379e-07
3.1683696e-05
5.9693121e-08
3.0626737e-07
3.1445219e-05
5.9611213e-08
2.9492011e-07
3.1215555e-05
5.9600625e-08
2.8427316e-07
3.0994132e-05
5.964655e-08
2.7425806e-07
3.0780436e-05
5.9736166e-08
2.6481539e-07
3.0574002e-05
5.9858658e-08
2.5589334e-07
3.0374407e-05
6.0004932e-08
2.4744662e-07
3.0181267e-05
6.0167641e-08
2.394355e-07
2.9994229e-05
6.034126e-08
2.3182488e-07
2.9812971e-05
6.0521827e-08
2.2458373e-07
2.9637193e-05
6.0704451e-08
2.1768455e-07
2.9466629e-05
6.0867299e-08
2.1110458e-07
2.9301024e-05
6.1017007e-08
2.0482179e-07
2.914014e-05
6.1160894e-08
1.9881567e-07
2.8983756e-05
6.1294969e-08
1.9306837e-07
2.8831669e-05
6.1415475e-08
1.8756387e-07
2.8683688e-05
6.1520919e-08
1.8228763e-07
2.8539633e-05
6.1610531e-08
1.7722636e-07
2.8399336e-05
6.1683782e-08
1.7236784e-07
2.8262639e-05
6.1740461e-08
1.6770089e-07
2.8129394e-05
6.1780651e-08
1.6321522e-07
2.7999461e-05
6.1803893e-08
1.5890122e-07
2.7872709e-05
6.1807368e-08
1.5475038e-07
2.7749012e-05
6.1793561e-08
1.5075442e-07
2.7628253e-05
6.1764856e-08
1.4690558e-07
2.7510319e-05
6.1721025e-08
1.4319661e-07
2.7395105e-05
6.1662101e-08
1.3962084e-07
2.728251e-05
6.1588629e-08
1.3617199e-07
2.7172439e-05
6.1501056e-08
1.3284421e-07
2.7064802e-05
6.1399999e-08
1.2963189e-07
2.6959511e-05
6.1285968e-08
1.265299e-07
2.6856486e-05
6.1159545e-08
1.2353326e-07
2.6755649e-05
6.1021329e-08
1.206373e-07
2.6656924e-05
6.0871883e-08
1.1783766e-07
2.6560242e-05
6.0711718e-08
1.1513014e-07
2.6465535e-05
6.0541371e-08
1.1251076e-07
2.6372738e-05
6.0361324e-08
1.0997579e-07
2.6281791e-05
6.0171925e-08
1.0752161e-07
2.6192636e-05
5.9973525e-08
1.0514471e-07
2.6105215e-05
5.976631e-08
1.0284182e-07
2.6019477e-05
5.9550242e-08
1.0060973e-07
2.5935371e-05
5.9325123e-08
9.8445268e-08
2.585285e-05
5.909048e-08
9.6345405e-08
2.5771868e-05
5.8845458e-08
9.4306927e-08
2.5692384e-05
5.8588994e-08
9.2326755e-08
2.5614357e-05
5.8319804e-08
9.0401446e-08
2.5537753e-05
5.8037077e-08
8.8527341e-08
2.5462539e-05
5.7741663e-08
8.6700221e-08
2.5388689e-05
5.743841e-08
8.491515e-08
2.5316184e-05
5.7141442e-08
8.3166628e-08
2.5245017e-05
5.6882559e-08
8.1449626e-08
2.51752e-05
5.6726021e-08
7.9765802e-08
2.510677e-05
5.6787883e-08
7.8149185e-08
2.5039729e-05
5.7251611e-08
7.6780957e-08
2.4973573e-05
5.8330944e-08
7.6510222e-08
2.4906079e-05
5.9989514e-08
7.9732204e-08
6.0715016e-08
1.1287826e-07
0.00010503672
9.0789369e-07
6.5005615e-06
9.9140653e-05
1.6524913e-06
6.6166801e-06
9.3788329e-05
2.0825242e-06
6.1717217e-06
8.8708526e-05
2.2549373e-06
5.91053e-06
8.3909682e-05
2.278404e-06
5.6151748e-06
7.9437109e-05
2.2074821e-06
5.2497564e-06
7.5296201e-05
2.0645348e-06
4.8553893e-06
7.1474034e-05
1.8722543e-06
4.4605969e-06
6.7955013e-05
1.6547667e-06
4.0771269e-06
6.4723621e-05
1.4313505e-06
3.7107669e-06
6.1764423e-05
1.2154297e-06
3.3655007e-06
5.9062056e-05
1.015864e-06
3.0438911e-06
5.6601108e-05
8.3782742e-07
2.7471548e-06
5.4365944e-05
6.8344647e-07
2.475497e-06
5.2340648e-05
5.5258526e-07
2.2284383e-06
5.0509125e-05
4.4366545e-07
2.0050361e-06
4.8855299e-05
3.5433455e-07
1.8040352e-06
4.7363353e-05
2.8193588e-07
1.6239821e-06
4.6017963e-05
2.2381345e-07
1.4633127e-06
4.4804502e-05
1.774938e-07
1.3204181e-06
4.3709199e-05
1.4078088e-07
1.1936935e-06
4.2719248e-05
1.1179151e-07
1.081575e-06
4.1822875e-05
8.8954554e-08
9.8256584e-07
4.1009364e-05
7.0987987e-08
8.9525472e-07
4.0269054e-05
5.6861831e-08
8.183238e-07
3.9593306e-05
4.5719127e-08
7.5058476e-07
3.8974405e-05
3.6977846e-08
6.9093441e-07
3.8405585e-05
3.0067373e-08
6.3838634e-07
3.7880869e-05
2.4650859e-08
5.9204244e-07
3.7395029e-05
2.0439987e-08
5.5110608e-07
3.6943514e-05
1.7190284e-08
5.1487716e-07
3.6522366e-05
1.4716747e-08
4.827396e-07
3.6128148e-05
1.2874795e-08
4.541539e-07
3.5757883e-05
1.1549898e-08
4.2864943e-07
3.5408991e-05
1.0650756e-08
4.0581703e-07
3.5079238e-05
1.0103617e-08
3.8530226e-07
3.4766689e-05
9.8482392e-09
3.6679877e-07
3.4469668e-05
9.8350814e-09
3.5004233e-07
3.4186716e-05
1.0022875e-08
3.3480552e-07
3.3916567e-05
1.0376995e-08
3.2089286e-07
3.3658116e-05
1.0868042e-08
3.081366e-07
3.3410395e-05
1.1470958e-08
2.9639285e-07
3.3172556e-05
1.2164212e-08
2.8553828e-07
3.2943852e-05
1.2929284e-08
2.7546718e-07
3.2723625e-05
1.3750161e-08
2.6608893e-07
3.2511286e-05
1.4613092e-08
2.573257e-07
3.2306316e-05
1.550625e-08
2.4911067e-07
3.2108246e-05
1.6419582e-08
2.4138623e-07
3.1916658e-05
1.7344625e-08
2.3410269e-07
3.1731171e-05
1.827433e-08
2.2721712e-07
3.1551444e-05
1.9203189e-08
2.2069215e-07
3.1377162e-05
2.0127737e-08
2.1449507e-07
3.1208038e-05
2.1048664e-08
2.0859681e-07
3.10438e-05
2.1972791e-08
2.0297055e-07
3.0884232e-05
2.2827854e-08
1.9760739e-07
3.0729103e-05
2.3663005e-08
1.9248228e-07
3.05782e-05
2.4489999e-08
1.875738e-07
3.0431331e-05
2.5296258e-08
1.8286761e-07
3.0288318e-05
2.607798e-08
1.7835075e-07
3.0148994e-05
2.6834309e-08
1.7401106e-07
3.0013202e-05
2.7564674e-08
1.6983755e-07
2.9880797e-05
2.8268953e-08
1.6582023e-07
2.975164e-05
2.8947434e-08
1.6195014e-07
2.96256e-05
2.9600762e-08
1.5821895e-07
2.9502557e-05
3.0228529e-08
1.5461922e-07
2.9382396e-05
3.0823583e-08
1.5114464e-07
2.9265007e-05
3.1393151e-08
1.4778878e-07
2.9150287e-05
3.1939587e-08
1.4454534e-07
2.9038137e-05
3.2461888e-08
1.4140898e-07
2.8928465e-05
3.2960067e-08
1.3837459e-07
2.8821181e-05
3.3434725e-08
1.3543748e-07
2.8716203e-05
3.3886378e-08
1.3259327e-07
2.8613449e-05
3.4315565e-08
1.2983785e-07
2.8512845e-05
3.4722906e-08
1.2716736e-07
2.8414317e-05
3.510901e-08
1.2457815e-07
2.8317797e-05
3.5474479e-08
1.220668e-07
2.8223219e-05
3.5819914e-08
1.1963007e-07
2.813052e-05
3.6145925e-08
1.1726492e-07
2.803964e-05
3.6453068e-08
1.149684e-07
2.7950522e-05
3.6741851e-08
1.1273775e-07
2.7863111e-05
3.7012792e-08
1.1057026e-07
2.7777354e-05
3.7266252e-08
1.0846344e-07
2.7693204e-05
3.7502484e-08
1.0641473e-07
2.761061e-05
3.7721615e-08
1.0442174e-07
2.752953e-05
3.7923541e-08
1.0248203e-07
2.7449919e-05
3.8107973e-08
1.0059307e-07
2.7371738e-05
3.8274285e-08
9.8752318e-08
2.7294949e-05
3.8421514e-08
9.6956905e-08
2.7219516e-05
3.8548766e-08
9.5203624e-08
2.714541e-05
3.8655124e-08
9.3488623e-08
2.7072603e-05
3.8741155e-08
9.1806974e-08
2.7001079e-05
3.8810259e-08
9.0152312e-08
2.6930832e-05
3.8872134e-08
8.8516595e-08
2.6861876e-05
3.8947406e-08
8.6890539e-08
2.679426e-05
3.907354e-08
8.5269183e-08
2.6728065e-05
3.9306953e-08
8.367594e-08
2.6663337e-05
3.9708351e-08
8.2271174e-08
2.659956e-05
4.0271995e-08
8.183617e-08
2.6534295e-05
4.0698032e-08
8.4555728e-08
3.962084e-08
1.1507133e-07
0.00010494757
5.6811079e-07
6.5033076e-06
9.8925416e-05
1.0462983e-06
6.6283517e-06
9.3480449e-05
1.3439844e-06
6.1835065e-06
8.8341777e-05
1.4751324e-06
5.9184763e-06
8.3502084e-05
1.4993911e-06
5.6187065e-06
7.9004057e-05
1.4572411e-06
5.2482679e-06
7.4853978e-05
1.3667382e-06
4.8478757e-06
7.1037378e-05
1.2423973e-06
4.4464569e-06
6.7536063e-05
1.0997693e-06
4.0563127e-06
6.4331998e-05
9.5192359e-07
3.6834909e-06
6.1407318e-05
8.0805754e-07
3.3320524e-06
5.8744339e-05
6.7422202e-07
3.0046209e-06
5.6325632e-05
5.5404396e-07
2.7024907e-06
5.4133973e-05
4.4916745e-07
2.4259383e-06
5.2152298e-05
3.59724e-07
2.174536e-06
5.0363747e-05
2.8484511e-07
1.9473718e-06
4.875178e-05
2.2310002e-07
1.7432015e-06
4.7300339e-05
1.7281167e-07
1.5605647e-06
4.5994012e-05
1.3226577e-07
1.3978748e-06
4.4818177e-05
9.9840031e-08
1.2534891e-06
4.3759121e-05
7.4075594e-08
1.1257614e-06
4.2804123e-05
5.3707624e-08
1.0130814e-06
4.1941503e-05
3.7671194e-08
9.1390374e-07
4.1160627e-05
2.5096458e-08
8.267673e-07
4.0451891e-05
1.5294199e-08
7.5030387e-07
3.980679e-05
7.5281844e-09
6.8329172e-07
3.9217543e-05
1.6727581e-09
6.2455201e-07
3.8677513e-05
-3.0330772e-09
5.7313081e-07
3.8180739e-05
-6.6486518e-09
5.2807353e-07
3.7722004e-05
-9.3594837e-09
4.8853451e-07
3.7296777e-05
-1.1371815e-08
4.5378926e-07
3.6901112e-05
-1.2818234e-08
4.2319912e-07
3.6531588e-05
-1.3805316e-08
3.9620478e-07
3.6185236e-05
-1.4417467e-08
3.7231875e-07
3.5859491e-05
-1.4721885e-08
3.5111773e-07
3.5552132e-05
-1.4772672e-08
3.3223577e-07
3.5261237e-05
-1.4613932e-08
3.1535728e-07
3.4985143e-05
-1.4282203e-08
3.0021091e-07
3.472241e-05
-1.3807721e-08
2.8656378e-07
3.4471787e-05
-1.3215922e-08
2.742163e-07
3.4232185e-05
-1.2528217e-08
2.6299769e-07
3.4002657e-05
-1.1762837e-08
2.5276175e-07
3.3782373e-05
-1.0935274e-08
2.4338337e-07
3.3570606e-05
-1.0058802e-08
2.3475556e-07
3.3366714e-05
-9.1447343e-09
2.2678671e-07
3.3170131e-05
-8.2028344e-09
2.1939832e-07
3.2980356e-05
-7.2412353e-09
2.12523e-07
3.279694e-05
-6.2668723e-09
2.0610284e-07
3.2619482e-05
-5.2855597e-09
2.0008784e-07
3.2447623e-05
-4.3018395e-09
1.9443478e-07
3.228104e-05
-3.3190574e-09
1.8910586e-07
3.2119438e-05
-2.3383313e-09
1.8406733e-07
3.1962554e-05
-1.3530684e-09
1.7928645e-07
3.1810075e-05
-2.7633457e-10
1.7472765e-07
3.1661878e-05
5.8583264e-10
1.7043906e-07
3.1517732e-05
1.4356045e-09
1.6637294e-07
3.1377429e-05
2.3038429e-09
1.6248959e-07
3.1240792e-05
3.1586632e-09
1.5877486e-07
3.1107656e-05
3.9969947e-09
1.5521721e-07
3.0977867e-05
4.8171954e-09
1.5180548e-07
3.0851284e-05
5.6179822e-09
1.4852969e-07
3.0727774e-05
6.3990239e-09
1.4538081e-07
3.0607209e-05
7.160936e-09
1.4235055e-07
3.0489473e-05
7.9059681e-09
1.3943122e-07
3.037445e-05
8.6357645e-09
1.3661579e-07
3.0262049e-05
9.3206416e-09
1.3390395e-07
3.0152163e-05
9.9938106e-09
1.3128565e-07
3.0044697e-05
1.0650411e-08
1.2875514e-07
2.9939564e-05
1.1286765e-08
1.2630831e-07
2.983668e-05
1.190319e-08
1.2394088e-07
2.9735965e-05
1.2500164e-08
1.2164883e-07
2.9637345e-05
1.3077904e-08
1.1942844e-07
2.9540748e-05
1.3636736e-08
1.1727619e-07
2.9446105e-05
1.4177045e-08
1.1518884e-07
2.9353352e-05
1.4699188e-08
1.1316336e-07
2.9262425e-05
1.5203553e-08
1.1119701e-07
2.9173268e-05
1.5690504e-08
1.0928707e-07
2.9085822e-05
1.6160393e-08
1.0743111e-07
2.9000035e-05
1.6613565e-08
1.0562662e-07
2.8915855e-05
1.7050385e-08
1.0387151e-07
2.8833233e-05
1.747112e-08
1.0216361e-07
2.8752123e-05
1.7875993e-08
1.0050081e-07
2.8672479e-05
1.8265124e-08
9.8881079e-08
2.8594259e-05
1.8638581e-08
9.7302516e-08
2.8517424e-05
1.8996231e-08
9.5762976e-08
2.8441934e-05
1.93378e-08
9.4260379e-08
2.8367753e-05
1.9662784e-08
9.2792349e-08
2.8294848e-05
1.9970453e-08
9.1356275e-08
2.8223187e-05
2.0259969e-08
8.9948858e-08
2.8152746e-05
2.0530681e-08
8.8565925e-08
2.8083503e-05
2.07826e-08
8.7201793e-08
2.8015447e-05
2.1017553e-08
8.58487e-08
2.7948582e-05
2.1240742e-08
8.4495842e-08
2.7882937e-05
2.1462726e-08
8.3129514e-08
2.7818574e-05
2.1699975e-08
8.173652e-08
2.7755588e-05
2.196929e-08
8.0324364e-08
2.7694014e-05
2.2266166e-08
7.9016069e-08
2.7633299e-05
2.2506294e-08
7.8480623e-08
2.7571004e-05
2.2393408e-08
8.059945e-08
2.0993092e-08
1.0779945e-07
0.00010489986
2.7443377e-07
6.5049155e-06
9.8802772e-05
5.0716633e-07
6.6362236e-06
9.329591e-05
6.5854977e-07
6.1922972e-06
8.8116302e-05
7.2902544e-07
5.9257148e-06
8.3248198e-05