/*--------------------------------*- C++ -*----------------------------------*\
  =========                 |
  \\      /  F ield         | OpenFOAM: The Open Source CFD Toolbox
   \\    /   O peration     | Website:  https://openfoam.org
    \\  /    A nd           | Version:  7
     \\/     M anipulation  |
\*---------------------------------------------------------------------------*/
FoamFile
{
    version     2.0;
    format      ascii;
    class       volVectorField;
    location    "1250/water";
    object      U;
}
// * * * * * * * * * * * * * * * * * * * * * * * * * * * * * * * * * * * * * //

dimensions      [0 1 -1 0 0 0 0];

internalField   nonuniform List<vector> 
54000
(
(0.0090020934 0.00020305973 0.00020444027)
(0.0083186447 0.00023622738 0.00023904411)
(0.0073695241 0.00021363852 0.00021763527)
(0.0063566114 0.00018488016 0.00018965819)
(0.0054486673 0.00015530836 0.00016048633)
(0.0046741594 0.00012529952 0.00013052937)
(0.0040193038 9.7052611e-05 0.00010203017)
(0.0034740067 7.2578998e-05 7.7073286e-05)
(0.0030302461 5.2876126e-05 5.6738328e-05)
(0.0026757323 3.8068149e-05 4.1216512e-05)
(0.0023947254 2.7637703e-05 3.003714e-05)
(0.0021713898 2.0689035e-05 2.2336509e-05)
(0.0019919695 1.6236161e-05 1.7152703e-05)
(0.0018455015 1.3416235e-05 1.3643173e-05)
(0.0017237326 1.1582488e-05 1.1179122e-05)
(0.0016206928 1.0304892e-05 9.3455801e-06)
(0.0015321593 9.3257906e-06 7.8957158e-06)
(0.0014551546 8.5052953e-06 6.69531e-06)
(0.0013875459 7.7746337e-06 5.6760577e-06)
(0.0013277612 7.1034274e-06 4.8034857e-06)
(0.001274601 6.47985e-06 4.0581562e-06)
(0.0012271179 5.8999453e-06 3.4261574e-06)
(0.0011845424 5.3625303e-06 2.8950706e-06)
(0.001146235 4.8670212e-06 2.4526297e-06)
(0.0011116558 4.4125995e-06 2.0869773e-06)
(0.0010803434 3.9980135e-06 1.7867454e-06)
(0.0010519002 3.6214604e-06 1.5416128e-06)
(0.0010259819 3.2805935e-06 1.3421857e-06)
(0.001002289 2.9733948e-06 1.1797307e-06)
(0.00098056199 2.6979495e-06 1.0463203e-06)
(0.00096057572 2.4519209e-06 9.3658931e-07)
(0.00094213242 2.2325674e-06 8.4693269e-07)
(0.00092505792 2.0373877e-06 7.7316598e-07)
(0.00090920047 1.8640894e-06 7.1184202e-07)
(0.00089442818 1.7104628e-06 6.6046811e-07)
(0.0008806259 1.5743819e-06 6.1707411e-07)
(0.00086769295 1.4538607e-06 5.8005374e-07)
(0.00085554128 1.3470713e-06 5.4811528e-07)
(0.00084409387 1.2523502e-06 5.202383e-07)
(0.00083328322 1.1681989e-06 4.9562778e-07)
(0.00082305015 1.0932618e-06 4.7365286e-07)
(0.00081334267 1.0262297e-06 4.5378294e-07)
(0.00080411486 9.6585969e-07 4.3554417e-07)
(0.00079532615 9.1131101e-07 4.1865051e-07)
(0.0007869407 8.6191674e-07 4.0290787e-07)
(0.00077892675 8.170824e-07 3.8816777e-07)
(0.00077125603 7.7627621e-07 3.7432153e-07)
(0.0007639033 7.390261e-07 3.6127618e-07)
(0.00075684597 7.0491437e-07 3.4896416e-07)
(0.00075006373 6.7357413e-07 3.3733061e-07)
(0.00074353821 6.4469337e-07 3.2633737e-07)
(0.00073725294 6.1802485e-07 3.1581811e-07)
(0.00073119313 5.9334703e-07 3.057441e-07)
(0.00072534528 5.7041999e-07 2.9621078e-07)
(0.00071969687 5.490245e-07 2.8716675e-07)
(0.00071423652 5.2901422e-07 2.7854311e-07)
(0.00070895385 5.10274e-07 2.7031056e-07)
(0.00070383928 4.9268764e-07 2.6244952e-07)
(0.00069888397 4.7614479e-07 2.5493257e-07)
(0.00069407976 4.6054931e-07 2.4774376e-07)
(0.00068941911 4.4582011e-07 2.4086306e-07)
(0.00068489502 4.3188405e-07 2.3427584e-07)
(0.00068050098 4.1867926e-07 2.2796402e-07)
(0.00067623091 4.0614714e-07 2.2191089e-07)
(0.00067207915 3.9423515e-07 2.1610515e-07)
(0.00066804042 3.8289764e-07 2.1053042e-07)
(0.00066410976 3.7209385e-07 2.0517687e-07)
(0.00066028251 3.6179376e-07 2.0003193e-07)
(0.00065655429 3.5196301e-07 1.9508294e-07)
(0.00065292099 3.4256968e-07 1.9031851e-07)
(0.00064937872 3.3358653e-07 1.8572887e-07)
(0.00064592384 3.2498798e-07 1.8130538e-07)
(0.00064255288 3.16752e-07 1.7704061e-07)
(0.00063926261 3.0885673e-07 1.7292533e-07)
(0.00063604992 3.0128357e-07 1.6895047e-07)
(0.00063291192 2.940131e-07 1.651114e-07)
(0.00062984583 2.870308e-07 1.6139768e-07)
(0.00062684904 2.8032144e-07 1.5780287e-07)
(0.00062391907 2.7387052e-07 1.5432029e-07)
(0.00062105358 2.676655e-07 1.5094155e-07)
(0.00061825035 2.6169398e-07 1.4766072e-07)
(0.00061550726 2.5594453e-07 1.4446846e-07)
(0.00061282235 2.5040725e-07 1.4136025e-07)
(0.00061019373 2.4506915e-07 1.3832431e-07)
(0.00060761964 2.3991915e-07 1.3535575e-07)
(0.00060509845 2.3494562e-07 1.3244916e-07)
(0.00060262863 2.3013588e-07 1.2959887e-07)
(0.00060020873 2.2546955e-07 1.2680397e-07)
(0.00059783744 2.2093123e-07 1.2407498e-07)
(0.00059551348 2.1649831e-07 1.2143365e-07)
(0.00059323555 2.1214812e-07 1.1892843e-07)
(0.00059100214 2.078718e-07 1.1666256e-07)
(0.00058881114 2.0369008e-07 1.1483051e-07)
(0.00058665898 1.9973119e-07 1.1381975e-07)
(0.00058453869 1.9638423e-07 1.1440993e-07)
(0.00058243501 1.9487267e-07 1.1837362e-07)
(0.00058031396 1.9977535e-07 1.309437e-07)
(0.0005781161 2.2258545e-07 1.6397616e-07)
(0.00057566369 1.9706932e-07 1.5080615e-07)
(0.00056906201 7.8896432e-07 7.5322537e-07)
(0.0095316863 0.0003313754 0.00022336697)
(0.0092716504 0.00041105943 0.00027052342)
(0.0087756651 0.00040317187 0.00026060062)
(0.0081527518 0.00038218754 0.00024252081)
(0.0075302151 0.00035309574 0.00022101124)
(0.0069425889 0.00031541062 0.00019648834)
(0.006391209 0.00027309198 0.00017102969)
(0.0058791845 0.00023030693 0.00014652546)
(0.0054120202 0.00019001855 0.00012410997)
(0.0049926512 0.00015423459 0.00010436627)
(0.004620592 0.00012408347 8.7479017e-05)
(0.0042931332 9.9809403e-05 7.3327495e-05)
(0.0040063965 8.0956424e-05 6.1601504e-05)
(0.0037559538 6.667221e-05 5.1918795e-05)
(0.0035372541 5.5985799e-05 4.3907445e-05)
(0.003345947 4.7992057e-05 3.7246645e-05)
(0.0031780884 4.1941709e-05 3.167753e-05)
(0.0030302311 3.7262445e-05 2.699792e-05)
(0.0028994324 3.3540996e-05 2.3051138e-05)
(0.0027832152 3.0490243e-05 1.9714594e-05)
(0.0026795075 2.7915735e-05 1.6890544e-05)
(0.0025865783 2.5687842e-05 1.4499382e-05)
(0.002502978 2.3720893e-05 1.2475015e-05)
(0.0024274871 2.1958431e-05 1.0761725e-05)
(0.0023590736 2.0362993e-05 9.3122327e-06)
(0.0022968589 1.8909454e-05 8.0861278e-06)
(0.0022400906 1.7580769e-05 7.0489618e-06)
(0.0021881216 1.6364899e-05 6.1714977e-06)
(0.0021403932 1.5251962e-05 5.4283141e-06)
(0.0020964214 1.423385e-05 4.7973507e-06)
(0.0020557868 1.3303041e-05 4.2604815e-06)
(0.0020181236 1.2451987e-05 3.8027027e-06)
(0.0019831119 1.1673909e-05 3.4109609e-06)
(0.0019504718 1.0962755e-05 3.0744203e-06)
(0.0019199589 1.0312854e-05 2.78426e-06)
(0.0018913593 9.7188328e-06 2.5331802e-06)
(0.0018644851 9.1756435e-06 2.3150739e-06)
(0.0018391716 8.6785729e-06 2.1248324e-06)
(0.0018152735 8.2232434e-06 1.9581842e-06)
(0.0017926629 7.8056209e-06 1.8115683e-06)
(0.0017712268 7.4219981e-06 1.682012e-06)
(0.001750865 7.0689379e-06 1.5670702e-06)
(0.0017314886 6.7432695e-06 1.4647427e-06)
(0.0017130186 6.442273e-06 1.3732757e-06)
(0.0016953848 6.1635565e-06 1.2911596e-06)
(0.0016785241 5.9049756e-06 1.2171194e-06)
(0.00166238 5.6646087e-06 1.1500839e-06)
(0.0016469019 5.4407252e-06 1.0891495e-06)
(0.001632044 5.2317766e-06 1.0335534e-06)
(0.0016177648 5.0363828e-06 9.8265467e-07)
(0.0016040271 4.8533222e-06 9.3589505e-07)
(0.0015907965 4.6815622e-06 8.9273751e-07)
(0.0015780424 4.5201558e-06 8.527873e-07)
(0.0015657364 4.3681536e-06 8.1577103e-07)
(0.0015538526 4.2246817e-06 7.813854e-07)
(0.0015423672 4.0890596e-06 7.49345e-07)
(0.0015312583 3.9607291e-06 7.1941276e-07)
(0.0015205058 3.8391524e-06 6.913876e-07)
(0.0015100909 3.7238129e-06 6.6509404e-07)
(0.0014999963 3.6142425e-06 6.4037989e-07)
(0.0014902061 3.510029e-06 6.1710798e-07)
(0.0014807053 3.4107977e-06 5.9516067e-07)
(0.00147148 3.3162111e-06 5.7442791e-07)
(0.0014625175 3.2259591e-06 5.5481486e-07)
(0.0014538055 3.1397554e-06 5.3623512e-07)
(0.0014453328 3.0573354e-06 5.1861265e-07)
(0.0014370889 2.9784704e-06 5.0187916e-07)
(0.0014290637 2.9029581e-06 4.8596886e-07)
(0.001421248 2.8306031e-06 4.7082377e-07)
(0.001413633 2.761219e-06 4.5639277e-07)
(0.0014062104 2.6946339e-06 4.4262812e-07)
(0.0013989723 2.6306911e-06 4.2948696e-07)
(0.0013919116 2.5692462e-06 4.1692975e-07)
(0.0013850211 2.5101642e-06 4.0492127e-07)
(0.0013782945 2.45332e-06 3.9342502e-07)
(0.0013717253 2.3985946e-06 3.8241218e-07)
(0.0013653078 2.3458835e-06 3.7185181e-07)
(0.0013590364 2.295085e-06 3.6171807e-07)
(0.0013529058 2.2461047e-06 3.5198412e-07)
(0.001346911 2.19885e-06 3.4262567e-07)
(0.0013410472 2.1532396e-06 3.3362077e-07)
(0.0013353099 2.1091942e-06 3.2494508e-07)
(0.001329695 2.066638e-06 3.1657821e-07)
(0.0013241983 2.025489e-06 3.0849984e-07)
(0.001318816 1.9856729e-06 3.0069044e-07)
(0.0013135446 1.9471134e-06 2.9313058e-07)
(0.0013083808 1.9097275e-06 2.8580564e-07)
(0.0013033213 1.8734245e-06 2.7870156e-07)
(0.0012983632 1.8381141e-06 2.7181604e-07)
(0.0012935038 1.8037137e-06 2.6515461e-07)
(0.0012887402 1.7701685e-06 2.5874271e-07)
(0.0012840698 1.7375335e-06 2.5265006e-07)
(0.0012794889 1.7061208e-06 2.4701401e-07)
(0.0012749925 1.6769096e-06 2.4211304e-07)
(0.001270572 1.6524672e-06 2.3851782e-07)
(0.0012662098 1.6393329e-06 2.3765961e-07)
(0.0012618709 1.6545765e-06 2.44582e-07)
(0.0012574959 1.7463715e-06 2.7712457e-07)
(0.0012529717 2.0376712e-06 2.6526424e-07)
(0.0012433358 2.9514827e-06 1.3525332e-06)
(0.0095221617 0.00021179965 0.00022180581)
(0.009269783 0.00029872516 0.00026628967)
(0.0088657772 0.00031669844 0.00025526743)
(0.0083755729 0.000317438 0.00023864265)
(0.0078888426 0.00030841043 0.00021987851)
(0.0074276349 0.00028848207 0.00019850458)
(0.006988258 0.00026048391 0.00017617916)
(0.0065698164 0.00022855168 0.00015444521)
(0.0061756011 0.00019596771 0.00013413534)
(0.0058087146 0.00016504408 0.00011567593)
(0.0054706295 0.00013728621 9.9270839e-05)
(0.0051615551 0.00011345265 8.494783e-05)
(0.0048808654 9.3684507e-05 7.2600737e-05)
(0.0046272998 7.7712988e-05 6.2044901e-05)
(0.0043991196 6.5057025e-05 5.3064544e-05)
(0.0041942886 5.5163887e-05 4.544363e-05)
(0.0040106431 4.7493346e-05 3.8982754e-05)
(0.0038460219 4.1561376e-05 3.350638e-05)
(0.0036983537 3.6958193e-05 2.8864074e-05)
(0.0035657105 3.3351175e-05 2.4928487e-05)
(0.0034463343 3.0479501e-05 2.1592135e-05)
(0.003338646 2.8144769e-05 1.8764099e-05)
(0.003241243 2.6200155e-05 1.6367138e-05)
(0.0031528887 2.4539753e-05 1.4335369e-05)
(0.0030724986 2.3088868e-05 1.2612489e-05)
(0.0029991252 2.1796113e-05 1.1150134e-05)
(0.0029319421 2.0626905e-05 9.9064818e-06)
(0.0028702292 1.9558164e-05 8.8458153e-06)
(0.0028133589 1.8574037e-05 7.9385382e-06)
(0.0027607855 1.7663623e-05 7.1598232e-06)
(0.0027120345 1.6818833e-05 6.4890348e-06)
(0.0026666927 1.6033067e-05 5.9090198e-06)
(0.0026243991 1.5301095e-05 5.4052722e-06)
(0.0025848382 1.4618819e-05 4.965652e-06)
(0.0025477347 1.3982713e-05 4.5801148e-06)
(0.0025128472 1.3389543e-05 4.2403271e-06)
(0.002479964 1.2836281e-05 3.9393558e-06)
(0.0024488994 1.2320059e-05 3.6714263e-06)
(0.0024194896 1.1838144e-05 3.4317262e-06)
(0.00239159 1.1387939e-05 3.2162523e-06)
(0.0023650729 1.0966985e-05 3.0216604e-06)
(0.0023398248 1.0573e-05 2.8451736e-06)
(0.0023157449 1.0203874e-05 2.6844751e-06)
(0.0022927433 9.8575808e-06 2.5375954e-06)
(0.0022707398 9.5322153e-06 2.4028645e-06)
(0.002249662 9.2260275e-06 2.2788667e-06)
(0.0022294453 8.9374175e-06 2.1643999e-06)
(0.0022100312 8.6649287e-06 2.0584387e-06)
(0.0021913666 8.4072367e-06 1.9601009e-06)
(0.0021734038 8.1631532e-06 1.8686314e-06)
(0.0021560989 7.9316213e-06 1.783367e-06)
(0.0021394122 7.7117244e-06 1.7037075e-06)
(0.0021233074 7.5026021e-06 1.6291519e-06)
(0.0021077512 7.303379e-06 1.5592837e-06)
(0.0020927129 7.1131876e-06 1.4937198e-06)
(0.0020781645 6.9314164e-06 1.432104e-06)
(0.0020640799 6.7576069e-06 1.3741143e-06)
(0.0020504351 6.5912616e-06 1.3194621e-06)
(0.0020372075 6.431879e-06 1.2678944e-06)
(0.0020243766 6.2790057e-06 1.2191878e-06)
(0.0020119231 6.1322416e-06 1.173133e-06)
(0.001999829 5.9912202e-06 1.129544e-06)
(0.0019880776 5.8556104e-06 1.0882503e-06)
(0.0019766531 5.7251034e-06 1.0490959e-06)
(0.0019655411 5.5994074e-06 1.0119379e-06)
(0.0019547276 5.4782446e-06 9.7664637e-07)
(0.0019441999 5.3613912e-06 9.4310111e-07)
(0.0019339458 5.2486484e-06 9.1119018e-07)
(0.0019239539 5.1398186e-06 8.8080867e-07)
(0.0019142135 5.0347036e-06 8.5186005e-07)
(0.0019047144 4.9331199e-06 8.2425966e-07)
(0.001895447 4.8348999e-06 7.9792464e-07)
(0.0018864023 4.7398903e-06 7.7278035e-07)
(0.0018775718 4.6479442e-06 7.4875629e-07)
(0.0018689473 4.558924e-06 7.2578823e-07)
(0.0018605211 4.4726998e-06 7.0381431e-07)
(0.0018522861 4.3891526e-06 6.8277735e-07)
(0.0018442353 4.3081682e-06 6.626251e-07)
(0.0018363621 4.229639e-06 6.4330719e-07)
(0.0018286604 4.153457e-06 6.2477646e-07)
(0.0018211241 4.0795272e-06 6.069883e-07)
(0.0018137478 4.0077525e-06 5.8990066e-07)
(0.0018065261 3.9380379e-06 5.734726e-07)
(0.001799454 3.8702799e-06 5.5766634e-07)
(0.0017925266 3.8043834e-06 5.4244686e-07)
(0.0017857396 3.7402374e-06 5.2777858e-07)
(0.0017790885 3.6777262e-06 5.1362958e-07)
(0.0017725695 3.6167264e-06 4.9996993e-07)
(0.0017661787 3.5571058e-06 4.8677419e-07)
(0.0017599128 3.4987598e-06 4.7402537e-07)
(0.0017537682 3.4416527e-06 4.6170925e-07)
(0.0017477416 3.3859649e-06 4.4983609e-07)
(0.0017418294 3.3323823e-06 4.3844268e-07)
(0.0017360272 3.2827913e-06 4.2764628e-07)
(0.0017303281 3.2417781e-06 4.1776831e-07)
(0.0017247202 3.220041e-06 4.0999102e-07)
(0.001719183 3.2421543e-06 4.0984917e-07)
(0.001713691 3.3643432e-06 4.4114283e-07)
(0.0017081999 3.7072183e-06 4.7353301e-07)
(0.0016974804 4.4611205e-06 1.8634985e-06)
(0.0095012861 0.00013951169 0.00022248511)
(0.0092133349 0.00022408324 0.00026709763)
(0.0088018509 0.0002570094 0.00025529581)
(0.0083306071 0.00026690691 0.0002382081)
(0.0078754299 0.00026502158 0.00021939836)
(0.0074527063 0.00025295651 0.00019823245)
(0.0070564396 0.00023295893 0.00017634609)
(0.0066827538 0.00020836345 0.0001552305)
(0.006331873 0.00018203353 0.00013558338)
(0.0060047052 0.00015603739 0.00011769036)
(0.0057015056 0.00013180401 0.00010166909)
(0.0054220192 0.00011020724 8.7524315e-05)
(0.0051656909 9.1631899e-05 7.5171986e-05)
(0.0049316845 7.6091187e-05 6.4472618e-05)
(0.0047188814 6.3363142e-05 5.526115e-05)
(0.0045259349 5.310494e-05 4.7366821e-05)
(0.0043513547 4.4932757e-05 4.0624899e-05)
(0.0041935865 3.8471359e-05 3.4883032e-05)
(0.0040510752 3.3381243e-05 3.0003995e-05)
(0.0039223115 2.9370509e-05 2.5866182e-05)
(0.0038058643 2.6197262e-05 2.2362868e-05)
(0.0037004012 2.366673e-05 1.9400962e-05)
(0.0036047 2.1625757e-05 1.689961e-05)
(0.0035176529 1.9956327e-05 1.4788823e-05)
(0.0034382652 1.8569049e-05 1.3008104e-05)
(0.0033656513 1.7397363e-05 1.1504745e-05)
(0.0032990266 1.6392004e-05 1.0233524e-05)
(0.0032376995 1.5516242e-05 9.156534e-06)
(0.0031810636 1.4743888e-05 8.2421118e-06)
(0.0031285885 1.4056152e-05 7.4635754e-06)
(0.0030798115 1.3438893e-05 6.7985198e-06)
(0.0030343294 1.2881152e-05 6.2282219e-06)
(0.0029917905 1.2374494e-05 5.7369827e-06)
(0.0029518882 1.191242e-05 5.3116666e-06)
(0.0029143553 1.1489691e-05 4.9413534e-06)
(0.0028789586 1.1101928e-05 4.6170001e-06)
(0.0028454946 1.074538e-05 4.3311211e-06)
(0.0028137847 1.0416774e-05 4.0775276e-06)
(0.0027836727 1.0113218e-05 3.8511074e-06)
(0.0027550209 9.8321215e-06 3.6476457e-06)
(0.0027277081 9.5711597e-06 3.4636643e-06)
(0.002701627 9.32825e-06 3.2963012e-06)
(0.0026766823 9.1015152e-06 3.1431921e-06)
(0.0026527895 8.8892432e-06 3.0023824e-06)
(0.0026298729 8.6898923e-06 2.8722561e-06)
(0.0026078648 8.5020891e-06 2.7514704e-06)
(0.002586704 8.324616e-06 2.63891e-06)
(0.0025663358 8.1563953e-06 2.5336421e-06)
(0.0025467102 7.996475e-06 2.4348841e-06)
(0.002527782 7.8440259e-06 2.3419781e-06)
(0.0025095101 7.6983359e-06 2.2543615e-06)
(0.0024918566 7.5588095e-06 2.1715442e-06)
(0.0024747871 7.4248991e-06 2.093112e-06)
(0.0024582699 7.2960221e-06 2.01872e-06)
(0.0024422756 7.1714405e-06 1.9480701e-06)
(0.0024267775 7.0509287e-06 1.8808986e-06)
(0.0024117506 6.9343787e-06 1.8169519e-06)
(0.0023971715 6.8214906e-06 1.7560011e-06)
(0.0023830185 6.711956e-06 1.6978516e-06)
(0.0023692714 6.605538e-06 1.6423277e-06)
(0.0023559116 6.5020455e-06 1.5892718e-06)
(0.0023429214 6.4013076e-06 1.5385391e-06)
(0.0023302844 6.3031798e-06 1.4899937e-06)
(0.0023179851 6.2075239e-06 1.443516e-06)
(0.0023060089 6.1142021e-06 1.3989946e-06)
(0.0022943424 6.0230672e-06 1.3563258e-06)
(0.0022829727 5.9340582e-06 1.3154163e-06)
(0.0022718877 5.84713e-06 1.2761705e-06)
(0.002261076 5.762205e-06 1.238502e-06)
(0.0022505267 5.6792004e-06 1.2023302e-06)
(0.0022402296 5.5980441e-06 1.1675825e-06)
(0.0022301752 5.5186733e-06 1.1341885e-06)
(0.0022203542 5.4410302e-06 1.1020809e-06)
(0.002210758 5.3650617e-06 1.0711982e-06)
(0.0022013784 5.2907186e-06 1.0414848e-06)
(0.0021922076 5.217949e-06 1.0128825e-06)
(0.0021832381 5.1467096e-06 9.8533827e-07)
(0.0021744628 5.0769569e-06 9.5880325e-07)
(0.0021658752 5.0086493e-06 9.3322987e-07)
(0.0021574688 4.9417442e-06 9.0857405e-07)
(0.0021492375 4.8761987e-06 8.8479087e-07)
(0.0021411756 4.8119675e-06 8.6183878e-07)
(0.0021332776 4.7489996e-06 8.3967867e-07)
(0.0021255383 4.6872391e-06 8.1827139e-07)
(0.0021179527 4.6266217e-06 7.9757629e-07)
(0.0021105161 4.5670683e-06 7.775601e-07)
(0.0021032242 4.50848e-06 7.5818373e-07)
(0.0020960727 4.4507536e-06 7.3941008e-07)
(0.0020890577 4.3937731e-06 7.212028e-07)
(0.0020821756 4.3374532e-06 7.0352057e-07)
(0.002075423 4.2818099e-06 6.863219e-07)
(0.0020687967 4.2271333e-06 6.6956074e-07)
(0.0020622937 4.1743544e-06 6.5320307e-07)
(0.002055911 4.1258138e-06 6.3726157e-07)
(0.0020496453 4.0868301e-06 6.2198381e-07)
(0.0020434926 4.0687773e-06 6.0874713e-07)
(0.0020374483 4.0948756e-06 6.0452129e-07)
(0.0020315149 4.2094247e-06 6.3987746e-07)
(0.0020256647 4.4797467e-06 7.168846e-07)
(0.0020144539 4.9057766e-06 2.2695258e-06)
(0.0094902877 9.6726608e-05 0.00022289229)
(0.00917661 0.00016632333 0.00026788105)
(0.0087449456 0.00019969046 0.00025550648)
(0.0082664657 0.00021101604 0.00023762681)
(0.00781215 0.0002109939 0.0002181603)
(0.0073950862 0.0002028236 0.00019646328)
(0.0070087986 0.00018827265 0.00017418493)
(0.006648835 0.00016968865 0.0001528463)
(0.0063142174 0.00014929331 0.00013312182)
(0.0060045996 0.00012875288 0.0001152379)
(0.0057192201 0.00010923292 9.9256791e-05)
(0.0054570682 9.1490071e-05 8.514891e-05)
(0.0052170782 7.59234e-05 7.2816212e-05)
(0.0049981259 6.264333e-05 6.2119133e-05)
(0.0047989841 5.1561151e-05 5.2900048e-05)
(0.0046183234 4.2472277e-05 4.4997976e-05)
(0.0044547458 3.5118725e-05 3.8256897e-05)
(0.0043068267 2.9230542e-05 3.2530441e-05)
(0.0041731526 2.4550832e-05 2.7684339e-05)
(0.0040523509 2.084911e-05 2.3597363e-05)
(0.0039431142 1.7926912e-05 2.0161345e-05)
(0.0038442168 1.5618599e-05 1.7280682e-05)
(0.0037545253 1.3789365e-05 1.4871531e-05)
(0.0036730042 1.2331759e-05 1.2860862e-05)
(0.0035987172 1.1161538e-05 1.1185211e-05)
(0.0035308247 1.0213367e-05 9.7889739e-06)
(0.0034685786 9.4380832e-06 8.6250719e-06)
(0.0034113173 8.7971292e-06 7.6543157e-06)
(0.0033584589 8.2627215e-06 6.8439408e-06)
(0.0033094933 7.8140819e-06 6.1664558e-06)
(0.0032639753 7.4348236e-06 5.5988459e-06)
(0.0032215172 7.1121305e-06 5.121927e-06)
(0.0031817817 6.8360958e-06 4.7197279e-06)
(0.0031444758 6.5990194e-06 4.3789732e-06)
(0.0031093448 6.3947799e-06 4.088681e-06)
(0.0030761678 6.2184047e-06 3.839798e-06)
(0.0030447526 6.0657966e-06 3.6248786e-06)
(0.003014932 5.9335265e-06 3.4378173e-06)
(0.0029865602 5.8186966e-06 3.273618e-06)
(0.0029595097 5.7188203e-06 3.1282053e-06)
(0.002933669 5.6317493e-06 2.998261e-06)
(0.0029089401 5.5556256e-06 2.8810982e-06)
(0.0028852364 5.4888229e-06 2.7745347e-06)
(0.0028624815 5.4299124e-06 2.676811e-06)
(0.0028406075 5.3776435e-06 2.5865048e-06)
(0.0028195538 5.3309228e-06 2.5024724e-06)
(0.0027992664 5.2888091e-06 2.4237885e-06)
(0.0027796963 5.250481e-06 2.3497103e-06)
(0.0027607998 5.2152407e-06 2.2796378e-06)
(0.002742537 5.1824975e-06 2.2130844e-06)
(0.0027248717 5.1517656e-06 2.1496551e-06)
(0.0027077708 5.1226679e-06 2.0890233e-06)
(0.0026912041 5.0948962e-06 2.0309202e-06)
(0.0026751435 5.0680864e-06 1.9751365e-06)
(0.0026595636 5.0410668e-06 1.9215399e-06)
(0.0026444411 5.0142595e-06 1.869967e-06)
(0.002629754 4.9880192e-06 1.820251e-06)
(0.0026154815 4.9620737e-06 1.7722785e-06)
(0.0026016045 4.9361417e-06 1.72596e-06)
(0.0025881054 4.910084e-06 1.6812141e-06)
(0.0025749674 4.8838317e-06 1.6379663e-06)
(0.002562175 4.8573386e-06 1.5961461e-06)
(0.0025497136 4.8305795e-06 1.5556924e-06)
(0.0025375693 4.8035373e-06 1.516549e-06)
(0.0025257292 4.776175e-06 1.4786613e-06)
(0.002514181 4.7483828e-06 1.4419865e-06)
(0.0025029134 4.7202745e-06 1.4064831e-06)
(0.0024919154 4.6919162e-06 1.3721022e-06)
(0.0024811765 4.6632916e-06 1.3387971e-06)
(0.002470687 4.6344025e-06 1.3065289e-06)
(0.0024604377 4.6052686e-06 1.2752594e-06)
(0.0024504197 4.5759099e-06 1.2449539e-06)
(0.0024406247 4.5463468e-06 1.215575e-06)
(0.0024310448 4.5166014e-06 1.1870926e-06)
(0.0024216723 4.4866971e-06 1.1594729e-06)
(0.0024125001 4.4566518e-06 1.1326839e-06)
(0.0024035213 4.4264893e-06 1.106697e-06)
(0.0023947295 4.396228e-06 1.0814831e-06)
(0.0023861184 4.3658884e-06 1.0570125e-06)
(0.0023776821 4.3354868e-06 1.0332599e-06)
(0.0023694149 4.3050329e-06 1.0101969e-06)
(0.0023613115 4.2745356e-06 9.8779567e-07)
(0.0023533667 4.2439929e-06 9.6603065e-07)
(0.0023455757 4.2133959e-06 9.4487456e-07)
(0.0023379338 4.1827186e-06 9.2429922e-07)
(0.0023304365 4.1519263e-06 9.042767e-07)
(0.0023230798 4.1209517e-06 8.8477215e-07)
(0.0023158598 4.0897237e-06 8.6575273e-07)
(0.0023087726 4.0581555e-06 8.4717308e-07)
(0.002301815 4.0261903e-06 8.2898104e-07)
(0.0022949838 3.9938776e-06 8.111074e-07)
(0.0022882766 3.9615303e-06 7.934624e-07)
(0.002281691 3.9300789e-06 7.7594369e-07)
(0.0022752261 3.9016907e-06 7.5847741e-07)
(0.002268882 3.8809396e-06 7.412462e-07)
(0.0022626608 3.876647e-06 7.2572658e-07)
(0.0022565686 3.9043035e-06 7.1957915e-07)
(0.0022506189 3.9866544e-06 7.5579941e-07)
(0.0022447715 4.1391e-06 8.493186e-07)
(0.002233564 4.2832256e-06 2.412212e-06)
(0.0094843561 6.6886585e-05 0.00022303624)
(0.0091549219 0.00011904886 0.00026838771)
(0.0087072816 0.00014772496 0.00025588053)
(0.0082191888 0.00015892952 0.00023765677)
(0.0077602858 0.00016026049 0.00021787142)
(0.0073412804 0.00015505102 0.00019586613)
(0.0069552494 0.00014481701 0.00017327438)
(0.0065978366 0.00013121474 0.00015165024)
(0.0062677954 0.00011592881 0.00013169211)
(0.0059642872 0.00010028521 0.0001136244)
(0.0056860598 8.5214431e-05 9.7497522e-05)
(0.0054316726 7.1330408e-05 8.3272195e-05)
(0.0051997008 5.8984298e-05 7.0844884e-05)
(0.0049887459 4.8311753e-05 6.0073374e-05)
(0.0047973943 3.9291582e-05 5.079889e-05)
(0.0046242055 3.1804352e-05 4.2859902e-05)
(0.0044677269 2.5679085e-05 3.6099808e-05)
(0.0043265179 2.0725784e-05 3.0371291e-05)
(0.0041991724 1.6756343e-05 2.5538702e-05)
(0.004084339 1.3596837e-05 2.1479084e-05)
(0.0039807371 1.1093752e-05 1.8082324e-05)
(0.0038871692 9.1161625e-06 1.525079e-05)
(0.0038025288 7.5553809e-06 1.2898647e-05)
(0.003725804 6.3231341e-06 1.0950986e-05)
(0.0036560786 5.3488187e-06 9.3426775e-06)
(0.0035925304 4.5751812e-06 8.0166138e-06)
(0.0035344253 3.9620988e-06 6.9239499e-06)
(0.0034811131 3.4726276e-06 6.0250739e-06)
(0.0034320221 3.0815199e-06 5.2862643e-06)
(0.0033866501 2.7702762e-06 4.6792109e-06)
(0.0033445586 2.5236736e-06 4.1805217e-06)
(0.0033053662 2.3295864e-06 3.7707536e-06)
(0.0032687419 2.178498e-06 3.4337452e-06)
(0.0032343982 2.0629048e-06 3.156111e-06)
(0.0032020863 1.9768086e-06 2.9267969e-06)
(0.0031715907 1.9153167e-06 2.7367029e-06)
(0.0031427248 1.8743794e-06 2.5783552e-06)
(0.0031153267 1.8506041e-06 2.4456287e-06)
(0.0030892563 1.8411237e-06 2.3335227e-06)
(0.0030643915 1.8434983e-06 2.2379665e-06)
(0.003040626 1.8556427e-06 2.1556636e-06)
(0.0030178671 1.8757789e-06 2.0839522e-06)
(0.0029960335 1.9023789e-06 2.0206948e-06)
(0.0029750538 1.9341327e-06 1.9641818e-06)
(0.0029548649 1.9699146e-06 1.9130525e-06)
(0.0029354109 2.0087624e-06 1.8662266e-06)
(0.0029166424 2.0498584e-06 1.8228522e-06)
(0.0028985148 2.0925087e-06 1.7822576e-06)
(0.0028809886 2.1361369e-06 1.7439144e-06)
(0.0028640277 2.1802709e-06 1.7074101e-06)
(0.0028475999 2.2245517e-06 1.6724146e-06)
(0.0028316758 2.2687608e-06 1.638655e-06)
(0.0028162284 2.3128944e-06 1.605872e-06)
(0.0028012324 2.3570796e-06 1.5738227e-06)
(0.0027866658 2.3978721e-06 1.5431892e-06)
(0.0027725089 2.4362367e-06 1.5136872e-06)
(0.0027587418 2.4734405e-06 1.4848883e-06)
(0.002745346 2.5095342e-06 1.4567005e-06)
(0.002732305 2.5443506e-06 1.4291157e-06)
(0.0027196032 2.5777717e-06 1.4021111e-06)
(0.0027072261 2.6097233e-06 1.3756645e-06)
(0.0026951602 2.6401654e-06 1.3497559e-06)
(0.0026833928 2.6690877e-06 1.3243749e-06)
(0.0026719116 2.6965027e-06 1.2995086e-06)
(0.0026607054 2.7223721e-06 1.2751534e-06)
(0.0026497635 2.7463553e-06 1.2513128e-06)
(0.002639076 2.7689089e-06 1.2279784e-06)
(0.0026286333 2.7901473e-06 1.2051277e-06)
(0.0026184262 2.8099939e-06 1.1827603e-06)
(0.0026084461 2.8284311e-06 1.1608696e-06)
(0.0025986849 2.8454933e-06 1.1394485e-06)
(0.0025891348 2.8612183e-06 1.1184898e-06)
(0.0025797885 2.8756501e-06 1.0979861e-06)
(0.002570639 2.8888319e-06 1.0779288e-06)
(0.0025616795 2.9008075e-06 1.0583091e-06)
(0.0025529038 2.9116211e-06 1.0391188e-06)
(0.0025443058 2.9213151e-06 1.0203481e-06)
(0.0025358796 2.9299302e-06 1.00199e-06)
(0.0025276198 2.937506e-06 9.8403211e-07)
(0.002519521 2.9440784e-06 9.6646599e-07)
(0.0025115783 2.9496797e-06 9.4927887e-07)
(0.0025037869 2.9543366e-06 9.3246158e-07)
(0.0024961421 2.958068e-06 9.1599953e-07)
(0.0024886396 2.9608814e-06 8.9988006e-07)
(0.0024812752 2.962772e-06 8.8408557e-07)
(0.002474045 2.9637209e-06 8.6859445e-07)
(0.0024669452 2.9636866e-06 8.5338258e-07)
(0.0024599723 2.9626112e-06 8.384141e-07)
(0.0024531231 2.9604312e-06 8.2364291e-07)
(0.0024463945 2.9570967e-06 8.0900344e-07)
(0.0024397839 2.9526526e-06 7.943992e-07)
(0.0024332895 2.9473508e-06 7.7969381e-07)
(0.0024269099 2.9419133e-06 7.6471009e-07)
(0.0024206457 2.9379212e-06 7.4926012e-07)
(0.0024144993 2.9384186e-06 7.333649e-07)
(0.0024084767 2.9484947e-06 7.1826469e-07)
(0.0024025877 2.9751255e-06 7.1113348e-07)
(0.002396846 3.0234612e-06 7.4331262e-07)
(0.0023911946 3.080831e-06 8.3046631e-07)
(0.0023803644 3.0574256e-06 2.2999443e-06)
(0.0094810492 4.4090134e-05 0.00022308885)
(0.0091422796 7.9975482e-05 0.00026874495)
(0.0086839084 0.00010160921 0.00025628771)
(0.0081880903 0.00011101591 0.00023793456)
(0.0077246858 0.00011275117 0.00021798622)
(0.0073029895 0.00010953687 0.00019578738)
(0.0069155191 0.00010266029 0.00017296032)
(0.0065579578 9.3267236e-05 0.0001510852)
(0.006229001 8.2539594e-05 0.00013089045)
(0.005927585 7.1446832e-05 0.00011261412)
(0.0056522063 6.0673359e-05 9.630924e-05)
(0.0054012005 5.0670807e-05 8.1936269e-05)
(0.0051729477 4.1706608e-05 6.9390832e-05)
(0.004965887 3.3898115e-05 5.8529097e-05)
(0.0047784814 2.7249953e-05 4.9189879e-05)
(0.0046092054 2.1693072e-05 4.1208774e-05)
(0.0044565535 1.7117436e-05 3.4426144e-05)
(0.0043190553 1.3395518e-05 2.8691658e-05)
(0.0041952917 1.0397813e-05 2.3866804e-05)
(0.0040839086 8.002331e-06 1.9826012e-05)
(0.0039836293 6.0997696e-06 1.6456861e-05)
(0.0038932634 4.5956606e-06 1.3659716e-05)
(0.0038117126 3.4106728e-06 1.1347012e-05)
(0.0037379734 2.4799286e-06 9.442291e-06)
(0.0036711359 1.7515123e-06 7.879089e-06)
(0.0036103859 1.1749053e-06 6.601032e-06)
(0.0035549935 7.2234059e-07 5.5561199e-06)
(0.0035043108 3.7342608e-07 4.7060693e-06)
(0.0034577717 1.0569733e-07 4.0163441e-06)
(0.0034148763 -9.9088771e-08 3.4574137e-06)
(0.0033751872 -2.5333625e-07 3.0054952e-06)
(0.0033383243 -3.6639955e-07 2.6409742e-06)
(0.0033039576 -4.4577893e-07 2.3475723e-06)
(0.0032718009 -4.9748315e-07 2.1118263e-06)
(0.0032416065 -5.2634632e-07 1.922641e-06)
(0.0032131599 -5.3631155e-07 1.7709145e-06)
(0.0031862758 -5.3064131e-07 1.6492026e-06)
(0.0031607936 -5.1206445e-07 1.5514417e-06)
(0.0031365743 -4.8287417e-07 1.4727109e-06)
(0.0031134976 -4.4500978e-07 1.4090327e-06)
(0.0030914586 -4.00114e-07 1.3572052e-06)
(0.0030703663 -3.495813e-07 1.314657e-06)
(0.0030501409 -2.9459698e-07 1.2793314e-06)
(0.0030307129 -2.361711e-07 1.2495914e-06)
(0.0030120207 -1.7516598e-07 1.2241401e-06)
(0.0029940105 -1.1232143e-07 1.2019527e-06)
(0.0029766343 -4.8267964e-08 1.1822235e-06)
(0.0029598495 1.6449334e-08 1.1643221e-06)
(0.0029436181 8.1354411e-08 1.1477522e-06)
(0.002927906 1.4602421e-07 1.1321244e-06)
(0.0029126825 2.100589e-07 1.1171187e-06)
(0.0028979201 2.730492e-07 1.1024392e-06)
(0.0028835935 3.3454136e-07 1.0876599e-06)
(0.0028696773 3.9432376e-07 1.0722027e-06)
(0.0028561514 4.570499e-07 1.0590092e-06)
(0.0028429997 5.2060148e-07 1.0472576e-06)
(0.0028302035 5.8225357e-07 1.0356079e-06)
(0.0028177449 6.4163821e-07 1.0238009e-06)
(0.0028056084 6.990194e-07 1.0118755e-06)
(0.0027937799 7.5456197e-07 9.9986904e-07)
(0.0027822461 8.0835022e-07 9.8781093e-07)
(0.0027709946 8.6046804e-07 9.7571994e-07)
(0.0027600137 9.1102658e-07 9.6360333e-07)
(0.0027492926 9.6019605e-07 9.5144758e-07)
(0.0027388207 1.008006e-06 9.3926727e-07)
(0.0027285887 1.0528497e-06 9.2746457e-07)
(0.0027185878 1.0958674e-06 9.158289e-07)
(0.0027088089 1.1375007e-06 9.0425387e-07)
(0.0026992438 1.1777678e-06 8.9276008e-07)
(0.0026898847 1.2166566e-06 8.8136619e-07)
(0.0026807244 1.2541704e-06 8.7007946e-07)
(0.0026717559 1.2903153e-06 8.589071e-07)
(0.0026629726 1.3251085e-06 8.478535e-07)
(0.0026543682 1.3585751e-06 8.3692325e-07)
(0.0026459367 1.3907418e-06 8.2612084e-07)
(0.0026376723 1.4216373e-06 8.1545304e-07)
(0.0026295698 1.451291e-06 8.0491948e-07)
(0.0026216238 1.4797325e-06 7.9452378e-07)
(0.0026138294 1.5069904e-06 7.8426227e-07)
(0.002606182 1.5330921e-06 7.7413936e-07)
(0.0025986769 1.558063e-06 7.6415168e-07)
(0.0025913099 1.5819222e-06 7.5429521e-07)
(0.0025840769 1.6046823e-06 7.4456413e-07)
(0.0025769739 1.6263507e-06 7.3495357e-07)
(0.0025699972 1.6469213e-06 7.2544896e-07)