/*--------------------------------*- C++ -*----------------------------------*\
  =========                 |
  \\      /  F ield         | OpenFOAM: The Open Source CFD Toolbox
   \\    /   O peration     | Website:  https://openfoam.org
    \\  /    A nd           | Version:  7
     \\/     M anipulation  |
\*---------------------------------------------------------------------------*/
FoamFile
{
    version     2.0;
    format      ascii;
    class       surfaceScalarField;
    location    "550/water";
    object      phi;
}
// * * * * * * * * * * * * * * * * * * * * * * * * * * * * * * * * * * * * * //

dimensions      [1 0 -1 0 0 0 0];

internalField   nonuniform List<scalar> 
156660
(
9.9057239e-05
6.0010402e-06
6.0528092e-06
8.6847497e-05
6.0555113e-06
6.1542307e-06
7.5687891e-05
5.5111363e-06
5.6484701e-06
6.5441704e-05
5.0404181e-06
5.2057689e-06
5.6267661e-05
4.4956436e-06
4.6783992e-06
4.8318019e-05
3.8797648e-06
4.0698777e-06
4.1624776e-05
3.2524448e-06
3.4407982e-06
3.6124897e-05
2.660462e-06
2.839417e-06
3.1692235e-05
2.1345126e-06
2.2981489e-06
2.8162841e-05
1.6926975e-06
1.8366964e-06
2.5361437e-05
1.3399933e-06
1.4614113e-06
2.3124664e-05
1.0698477e-06
1.1669256e-06
2.1315127e-05
8.6875417e-07
9.4078229e-07
1.9825714e-05
7.2110061e-07
7.6831272e-07
1.8577278e-05
6.1248246e-07
6.3595308e-07
1.7513255e-05
5.3125219e-07
5.327715e-07
1.6593744e-05
4.6879724e-07
4.5071348e-07
1.5790433e-05
4.1913718e-07
3.8417385e-07
1.5082784e-05
3.7829071e-07
3.2935849e-07
1.4455417e-05
3.4367129e-07
2.8369561e-07
1.3896409e-05
3.1361407e-07
2.4539334e-07
1.339622e-05
2.8704448e-07
2.1314451e-07
1.2947015e-05
2.6326033e-07
1.8594509e-07
1.2542237e-05
2.4179368e-07
1.629846e-07
1.2176318e-05
2.2232207e-07
1.435969e-07
1.1844484e-05
2.046148e-07
1.2721882e-07
1.1542609e-05
1.8849493e-07
1.1337974e-07
1.1267116e-05
1.7381574e-07
1.0167796e-07
1.1014892e-05
1.604627e-07
9.1760833e-08
1.0783252e-05
1.4833969e-07
8.3300625e-08
1.0569851e-05
1.3734904e-07
7.6052113e-08
1.0372614e-05
1.2738863e-07
6.9848306e-08
1.0189731e-05
1.1836806e-07
6.4514833e-08
1.001963e-05
1.1020448e-07
5.9896624e-08
9.8609388e-06
1.0281924e-07
5.5871673e-08
9.7124594e-06
9.6137945e-08
5.2341378e-08
9.5731439e-06
9.0091174e-08
4.9224369e-08
9.4420759e-06
8.4614485e-08
4.6453586e-08
9.3184531e-06
7.9648692e-08
4.3974117e-08
9.2015723e-06
7.5139732e-08
4.1741068e-08
9.0908166e-06
7.1038165e-08
3.9717563e-08
8.9856432e-06
6.7301126e-08
3.7872319e-08
8.8855707e-06
6.3894253e-08
3.6178174e-08
8.7901757e-06
6.07801e-08
3.4614932e-08
8.6990829e-06
5.7926156e-08
3.3166632e-08
8.611959e-06
5.5303704e-08
3.1820118e-08
8.5285072e-06
5.2887442e-08
3.0564388e-08
8.4484618e-06
5.0655047e-08
2.9390282e-08
8.3715848e-06
4.8587043e-08
2.8290016e-08
8.2976614e-06
4.6666184e-08
2.7257217e-08
8.2264975e-06
4.4877469e-08
2.6286414e-08
8.1579202e-06
4.3208795e-08
2.5368533e-08
8.0917731e-06
4.1649016e-08
2.4498028e-08
8.0279108e-06
4.0186972e-08
2.3675379e-08
7.9662005e-06
3.8812673e-08
2.2897523e-08
7.9065219e-06
3.7518396e-08
2.2160232e-08
7.8487639e-06
3.6297849e-08
2.1460138e-08
7.7928241e-06
3.5145132e-08
2.0794568e-08
7.7386083e-06
3.4054647e-08
2.0161128e-08
7.6860293e-06
3.3021351e-08
1.9557653e-08
7.6350062e-06
3.204081e-08
1.8982255e-08
7.5854641e-06
3.1109056e-08
1.8433071e-08
7.537333e-06
3.0222562e-08
1.7908453e-08
7.4905478e-06
2.9378215e-08
1.7406987e-08
7.4450476e-06
2.8573018e-08
1.6927167e-08
7.4007755e-06
2.7804249e-08
1.6467811e-08
7.3576783e-06
2.7069614e-08
1.6027656e-08
7.3157056e-06
2.6367047e-08
1.5605631e-08
7.2748103e-06
2.5694632e-08
1.520069e-08
7.2349479e-06
2.5050566e-08
1.4811838e-08
7.1960766e-06
2.4433089e-08
1.4438192e-08
7.158157e-06
2.3840648e-08
1.4078927e-08
7.1211518e-06
2.3271896e-08
1.3733273e-08
7.0850258e-06
2.2725507e-08
1.3400543e-08
7.0497456e-06
2.2200205e-08
1.3079915e-08
7.0152798e-06
2.1694909e-08
1.2770894e-08
6.9815985e-06
2.1208578e-08
1.2472743e-08
6.9486733e-06
2.0740246e-08
1.2184929e-08
6.9164775e-06
2.0288983e-08
1.1906796e-08
6.8849857e-06
1.9853968e-08
1.1637823e-08
6.8541739e-06
1.9434366e-08
1.1377448e-08
6.8240193e-06
1.9029451e-08
1.1125114e-08
6.7945006e-06
1.8638503e-08
1.0880232e-08
6.7655975e-06
1.8260765e-08
1.0642302e-08
6.7372912e-06
1.7895546e-08
1.0410746e-08
6.709564e-06
1.7542107e-08
1.0185098e-08
6.6823995e-06
1.7199617e-08
9.9648716e-09
6.6557824e-06
1.6867277e-08
9.7498426e-09
6.6296983e-06
1.6544113e-08
9.5399901e-09
6.604133e-06
1.6229225e-08
9.3359861e-09
6.5790714e-06
1.5921955e-08
9.1396944e-09
6.554494e-06
1.5622307e-08
8.9551043e-09
6.5303707e-06
1.5332566e-08
8.7906693e-09
6.5066467e-06
1.5060481e-08
8.6636074e-09
6.4832094e-06
1.4827818e-08
8.6095099e-09
6.4598103e-06
1.4693071e-08
8.7059939e-09
6.4358387e-06
1.4826407e-08
9.1451355e-09
6.4096302e-06
1.5741747e-08
1.0466732e-08
6.3782854e-06
1.8026569e-08
1.3318215e-08
3.2300234e-08
2.7923512e-08
0.00010646494
4.1872385e-06
6.4599816e-06
0.0001002019
5.695418e-06
6.6231353e-06
9.3659588e-05
5.7790389e-06
6.2744098e-06
8.7011589e-05
5.6514782e-06
6.0369387e-06
8.0422927e-05
5.366912e-06
5.7173941e-06
7.4094022e-05
4.9022832e-06
5.3063862e-06
6.8167026e-05
4.3278135e-06
4.8516273e-06
6.2722565e-05
3.717891e-06
4.387032e-06
5.7799049e-05
3.1243144e-06
3.9337145e-06
5.3403345e-05
2.5820689e-06
3.5063329e-06
4.9517402e-05
2.1121062e-06
3.1138299e-06
4.6105482e-05
1.7220197e-06
2.7597474e-06
4.3121558e-05
1.4089355e-06
2.4437429e-06
4.0515558e-05
1.1637552e-06
2.163346e-06
3.8237948e-05
9.7485849e-07
1.9152336e-06
3.6242683e-05
8.3055975e-07
1.6959573e-06
3.4488759e-05
7.2043698e-07
1.5022849e-06
3.2940716e-05
6.3586299e-07
1.3313172e-06
3.1568463e-05
5.7005006e-07
1.1804931e-06
3.0346733e-05
5.1784899e-07
1.0475522e-06
2.9254398e-05
4.7545953e-07
9.3049033e-07
2.8273782e-05
4.4013958e-07
8.2752024e-07
2.7390054e-05
4.0994895e-07
7.3704006e-07
2.6590699e-05
3.8353958e-07
6.5760855e-07
2.5865102e-05
3.5998888e-07
5.8793072e-07
2.5204197e-05
3.3867632e-07
5.2684263e-07
2.4600205e-05
3.191836e-07
4.733035e-07
2.4046429e-05
3.0120189e-07
4.2639019e-07
2.3537072e-05
2.8455203e-07
3.8526712e-07
2.3067119e-05
2.6911099e-07
3.491824e-07
2.2632208e-05
2.5478164e-07
3.1747788e-07
2.2228528e-05
2.4147382e-07
2.8959533e-07
2.1852744e-05
2.2911072e-07
2.6504123e-07
2.1501947e-05
2.1762891e-07
2.4337256e-07
2.1173591e-05
2.069695e-07
2.2420572e-07
2.0865444e-05
1.9707567e-07
2.0720868e-07
2.0575549e-05
1.8789255e-07
1.9209399e-07
2.0302183e-05
1.7936725e-07
1.7861342e-07
2.0043829e-05
1.7144912e-07
1.6655321e-07
1.979915e-05
1.6408984e-07
1.5572944e-07
1.956696e-05
1.5724385e-07
1.4598404e-07
1.934621e-05
1.5086897e-07
1.3718217e-07
1.9135969e-05
1.4492652e-07
1.2920884e-07
1.8935407e-05
1.3937903e-07
1.2196308e-07
1.8743783e-05
1.3419232e-07
1.1535762e-07
1.8560435e-05
1.2933511e-07
1.0931727e-07
1.8384766e-05
1.2477907e-07
1.0377714e-07
1.8216241e-05
1.2049854e-07
9.86813e-08
1.8054377e-05
1.1647012e-07
9.3981329e-08
1.7898734e-05
1.1267291e-07
8.9635425e-08
1.7748917e-05
1.090882e-07
8.560699e-08
1.7604563e-05
1.0570005e-07
8.1862413e-08
1.7465345e-05
1.0249338e-07
7.8373263e-08
1.7330962e-05
9.9453008e-08
7.5117001e-08
1.7201138e-05
9.6564408e-08
7.2072713e-08
1.7075619e-05
9.3816641e-08
6.9221123e-08
1.695417e-05
9.120112e-08
6.6545102e-08
1.6836577e-05
8.8709122e-08
6.4029531e-08
1.6722638e-05
8.6331958e-08
6.166101e-08
1.661217e-05
8.4061739e-08
5.9427681e-08
1.6505001e-05
8.1891515e-08
5.7318806e-08
1.640097e-05
7.9814906e-08
5.5324846e-08
1.6299929e-05
7.7826146e-08
5.3437134e-08
1.620174e-05
7.5919836e-08
5.1647927e-08
1.6106272e-05
7.4090982e-08
4.9950121e-08
1.6013404e-05
7.2335007e-08
4.8337378e-08
1.5923022e-05
7.064772e-08
4.6803874e-08
1.5835019e-05
6.9025714e-08
4.5344293e-08
1.5749294e-05
6.7465518e-08
4.395371e-08
1.5665753e-05
6.5963764e-08
4.2627679e-08
1.5584307e-05
6.4517358e-08
4.1362155e-08
1.5504871e-05
6.3123413e-08
4.0153353e-08
1.5427365e-05
6.1779306e-08
3.8997781e-08
1.5351716e-05
6.0482537e-08
3.7892273e-08
1.5277852e-05
5.9230829e-08
3.6833848e-08
1.5205705e-05
5.8022001e-08
3.5819725e-08
1.5135212e-05
5.6854031e-08
3.4847371e-08
1.5066313e-05
5.5724987e-08
3.3914362e-08
1.499895e-05
5.4633145e-08
3.301843e-08
1.493307e-05
5.3576726e-08
3.2157451e-08
1.4868621e-05
5.2554205e-08
3.1329424e-08
1.4805554e-05
5.1563955e-08
3.0532438e-08
1.4743823e-05
5.0604473e-08
2.9764642e-08
1.4683386e-05
4.9674302e-08
2.9024368e-08
1.4624199e-05
4.8771813e-08
2.8309877e-08
1.4566226e-05
4.7895454e-08
2.7619564e-08
1.4509431e-05
4.7043514e-08
2.6952001e-08
1.4453778e-05
4.6214099e-08
2.6305772e-08
1.4399237e-05
4.540539e-08
2.5679872e-08
1.4345777e-05
4.4615685e-08
2.5073733e-08
1.4293367e-05
4.3844217e-08
2.4487693e-08
1.4241972e-05
4.309286e-08
2.392377e-08
1.4191548e-05
4.2369899e-08
2.3387163e-08
1.4142019e-05
4.169928e-08
2.2889648e-08
1.4093249e-05
4.1141604e-08
2.2456641e-08
1.4044951e-05
4.0844652e-08
2.214653e-08
1.3996485e-05
4.1169181e-08
2.212302e-08
1.3946229e-05
4.3012317e-08
2.2985407e-08
1.389015e-05
4.8540243e-08
2.5565818e-08
6.3281558e-08
5.0000827e-08
0.00010603565
2.7876425e-06
6.4750379e-06
0.00010074799
4.4145412e-06
6.5685292e-06
9.5493515e-05
4.8594028e-06
6.1741158e-06
9.0256432e-05
4.930369e-06
5.9581921e-06
8.5101366e-05
4.8311767e-06
5.6908012e-06
8.0102875e-05
4.5561761e-06
5.3445981e-06
7.5322251e-05
4.1469521e-06
4.9614853e-06
7.0803266e-05
3.6678925e-06
4.5689837e-06
6.6576264e-05
3.1701903e-06
4.1811255e-06
6.2660725e-05
2.6900109e-06
3.8075976e-06
5.9065443e-05
2.2519318e-06
3.4554566e-06
5.5788936e-05
1.8697303e-06
3.1287957e-06
5.2820978e-05
1.5477473e-06
2.8291458e-06
5.014479e-05
1.2836302e-06
2.5563139e-06
4.7739304e-05
1.07123e-06
2.3091141e-06
4.5581183e-05
9.0281502e-07
2.0858661e-06
4.3646423e-05
7.7048777e-07
1.884709e-06
4.1911533e-05
6.669737e-07
1.7037793e-06
4.0354306e-05
5.8598196e-07
1.541295e-06
3.8954268e-05
5.223022e-07
1.3955849e-06
3.769288e-05
4.7175605e-07
1.2650911e-06
3.6553576e-05
4.3107985e-07
1.1483634e-06
3.552169e-05
3.9778207e-07
1.0440533e-06
3.4584322e-05
3.6999888e-07
9.509083e-07
3.3730181e-05
3.4635989e-07
8.6777017e-07
3.2949411e-05
3.258776e-07
7.9356871e-07
3.2233419e-05
3.0784048e-07
7.2733484e-07
3.157471e-05
2.9172982e-07
6.6818106e-07
3.0966769e-05
2.7719266e-07
6.1530129e-07
3.0403928e-05
2.6398101e-07
5.6797021e-07
2.9881258e-05
2.5190847e-07
5.2554315e-07
2.9394455e-05
2.4082712e-07
4.8745001e-07
2.8939761e-05
2.3062161e-07
4.5318325e-07
2.8513895e-05
2.2120155e-07
4.2229386e-07
2.8113985e-05
2.1249198e-07
3.9438677e-07
2.7737518e-05
2.0442801e-07
3.6911491e-07
2.7382285e-05
1.9695196e-07
3.4617383e-07
2.7046344e-05
1.9001181e-07
3.2529678e-07
2.6727982e-05
1.8355996e-07
3.0625043e-07
2.6425689e-05
1.7755277e-07
2.8883088e-07
2.6138123e-05
1.7195006e-07
2.7285984e-07
2.5864094e-05
1.6671515e-07
2.5818185e-07
2.5602546e-05
1.6181453e-07
2.4466092e-07
2.535253e-05
1.5721707e-07
2.3217765e-07
2.51132e-05
1.5289441e-07
2.2062725e-07
2.4883797e-05
1.4882095e-07
2.0991772e-07
2.4663634e-05
1.4497365e-07
1.999681e-07
2.4452094e-05
1.4133184e-07
1.9070706e-07
2.4248615e-05
1.3787694e-07
1.8207155e-07
2.405269e-05
1.3459267e-07
1.7400571e-07
2.3863854e-05
1.3146464e-07
1.664599e-07
2.3681684e-05
1.2848058e-07
1.5938925e-07
2.3505794e-05
1.256292e-07
1.5275411e-07
2.3335829e-05
1.2289869e-07
1.4651968e-07
2.3171462e-05
1.2027635e-07
1.4065459e-07
2.3012394e-05
1.1775473e-07
1.351302e-07
2.2858345e-05
1.1532969e-07
1.2992042e-07
2.2709057e-05
1.1299537e-07
1.2500174e-07
2.2564291e-05
1.1074517e-07
1.2035285e-07
2.2423824e-05
1.0857346e-07
1.1595455e-07
2.2287451e-05
1.0647548e-07
1.1178923e-07
2.2154978e-05
1.0444702e-07
1.0784079e-07
2.2026226e-05
1.0248421e-07
1.040946e-07
2.1901025e-05
1.0058351e-07
1.0053714e-07
2.1779218e-05
9.8741547e-08
9.7156167e-08
2.1660658e-05
9.6954889e-08
9.3940281e-08
2.1545205e-05
9.5221289e-08
9.0879051e-08
2.1432729e-05
9.3538813e-08
8.7962821e-08
2.1323107e-05
9.1905309e-08
8.5182642e-08
2.1216222e-05
9.0318493e-08
8.253017e-08
2.1111965e-05
8.8776378e-08
7.9997882e-08
2.1010233e-05
8.7277128e-08
7.7578641e-08
2.0910927e-05
8.5818967e-08
7.5265852e-08
2.0813956e-05
8.4400335e-08
7.3053427e-08
2.0719232e-05
8.3019682e-08
7.0935669e-08
2.0626671e-05
8.1675633e-08
6.890719e-08
2.0536195e-05
8.0366815e-08
6.6963149e-08
2.0447729e-05
7.9091973e-08
6.5098774e-08
2.0361203e-05
7.7849795e-08
6.3309748e-08
2.0276548e-05
7.6639208e-08
6.1592042e-08
2.0193702e-05
7.5458992e-08
5.9941723e-08
2.0112602e-05
7.4307961e-08
5.8355231e-08
2.0033193e-05
7.3184917e-08
5.6829063e-08
1.9955419e-05
7.2088596e-08
5.5359963e-08
1.9879228e-05
7.1017635e-08
5.394486e-08
1.9804572e-05
6.9970439e-08
5.2580725e-08
1.9731406e-05
6.8945243e-08
5.1264804e-08
1.9659685e-05
6.7940098e-08
4.9994415e-08
1.9589371e-05
6.695303e-08
4.8767044e-08
1.9520423e-05
6.5982348e-08
4.7580523e-08
1.9452807e-05
6.5028007e-08
4.6433115e-08
1.9386482e-05
6.4094122e-08
4.5323764e-08
1.9321404e-05
6.319468e-08
4.4253111e-08
1.9257511e-05
6.2366354e-08
4.3225235e-08
1.9194705e-05
6.1695171e-08
4.2253146e-08
1.9132798e-05
6.1374093e-08
4.1377395e-08
1.9071394e-05
6.1822413e-08
4.075067e-08
1.9009424e-05
6.3924737e-08
4.105761e-08
1.8944661e-05
6.9304675e-08
4.3998861e-08
7.9170924e-08
7.4661546e-08
0.0001054937
1.9169871e-06
6.4880407e-06
0.00010005365
3.2729596e-06
6.5816335e-06
9.4926077e-05
3.8288995e-06
6.1580776e-06
8.9946373e-05
3.9838108e-06
5.9262629e-06
8.5163276e-05
3.9595077e-06
5.6547657e-06
8.0619137e-05
3.7899368e-06
5.3103784e-06
7.6329462e-05
3.5015547e-06
4.9350725e-06
7.230016e-05
3.1412013e-06
4.5559928e-06
6.8534206e-05
2.7514802e-06
4.1846641e-06
6.5032983e-05
2.3633493e-06
3.8278852e-06
6.1795789e-05
1.9984143e-06
3.490711e-06
5.8818843e-05
1.6703759e-06
3.176301e-06
5.6094717e-05
1.3858295e-06
2.886043e-06
5.3612488e-05
1.1457945e-06
2.6200649e-06
5.1358373e-05
9.4764118e-07
2.3777043e-06
4.9316593e-05
7.8676782e-07
2.1578272e-06
4.7470246e-05
6.5779544e-07
1.9590391e-06
4.5802069e-05
5.5532539e-07
1.7798252e-06
4.4295042e-05
4.7437112e-07
1.6186378e-06
4.293283e-05
4.1056665e-07
1.473948e-06
4.1700078e-05
3.6023237e-07
1.3442759e-06
4.0582591e-05
3.2035744e-07
1.2282094e-06
3.956742e-05
2.8853736e-07
1.1244154e-06
3.8642881e-05
2.6289064e-07
1.0316467e-06
3.7798527e-05
2.4196986e-07
9.48744e-07
3.7025076e-05
2.2467705e-07
8.746517e-07
3.6314324e-05
2.1018901e-07
8.0840406e-07
3.5659057e-05
1.9788604e-07
7.4911043e-07
3.5052961e-05
1.8731582e-07
6.9597282e-07
3.4490519e-05
1.7814871e-07
6.4827381e-07
3.3966922e-05
1.7013171e-07
6.0537441e-07
3.3477973e-05
1.6306727e-07
5.6670867e-07
3.3020016e-05
1.5680295e-07
5.317754e-07
3.2589865e-05
1.5122055e-07
5.0013241e-07
3.218474e-05
1.4622564e-07
4.7139136e-07
3.1802215e-05
1.4174076e-07
4.4521232e-07
3.1440168e-05
1.3770095e-07
4.2129809e-07
3.1096739e-05
1.3405095e-07
3.9938922e-07
3.0770297e-05
1.3074295e-07
3.7925954e-07
3.0459402e-05
1.2773515e-07
3.6071195e-07
3.0162787e-05
1.2499093e-07
3.4357479e-07
2.9879325e-05
1.2247782e-07
3.2769849e-07
2.960802e-05
1.2016732e-07
3.1295269e-07
2.934798e-05
1.1803381e-07
2.9922353e-07
2.9098408e-05
1.1605461e-07
2.8641138e-07
2.885859e-05
1.1420983e-07
2.7442907e-07
2.8627882e-05
1.1248192e-07
2.6320001e-07
2.8405701e-05
1.108556e-07
2.5265687e-07
2.819152e-05
1.0931758e-07
2.4274025e-07
2.7984859e-05
1.0785649e-07
2.3339754e-07
2.7785279e-05
1.0646279e-07
2.2458213e-07
2.7592378e-05
1.0512872e-07
2.1625214e-07
2.740579e-05
1.0384736e-07
2.0837033e-07
2.7225174e-05
1.0261121e-07
2.0090361e-07
2.705022e-05
1.0140745e-07
1.9382259e-07
2.6880641e-05
1.0023383e-07
1.8710043e-07
2.6716166e-05
9.9092357e-08
1.8071221e-07
2.6556546e-05
9.7980013e-08
1.7463558e-07
2.6401548e-05
9.6892517e-08
1.6885016e-07
2.6250957e-05
9.5827087e-08
1.633374e-07
2.610457e-05
9.4781707e-08
1.5808045e-07
2.5962199e-05
9.3754764e-08
1.5306363e-07
2.5823666e-05
9.2744896e-08
1.4827261e-07
2.5688804e-05
9.1751009e-08
1.4369412e-07
2.5557458e-05
9.0771771e-08
1.3931598e-07
2.5429481e-05
8.9805171e-08
1.3512695e-07
2.5304734e-05
8.8851471e-08
1.3111645e-07
2.5183087e-05
8.7911224e-08
1.2727467e-07
2.5064416e-05
8.698391e-08
1.2359243e-07
2.4948604e-05
8.6068901e-08
1.2006118e-07
2.4835542e-05
8.5165805e-08
1.1667303e-07
2.4725124e-05
8.4274331e-08
1.1342044e-07
2.4617252e-05
8.3394306e-08
1.1029655e-07
2.4511832e-05
8.2525457e-08
1.0729477e-07
2.4408775e-05
8.1667745e-08
1.0440898e-07
2.4307997e-05
8.0820957e-08
1.016334e-07
2.4209416e-05
7.9985037e-08
9.8962652e-08
2.4112956e-05
7.9159755e-08
9.6391538e-08
2.4018546e-05
7.8345019e-08
9.3915292e-08
2.3926115e-05
7.7540674e-08
9.1529303e-08
2.3835598e-05
7.6746577e-08
8.9229247e-08
2.3746933e-05
7.5962323e-08
8.7011047e-08
2.366006e-05
7.5187628e-08
8.487071e-08
2.3574922e-05
7.4421949e-08
8.2804558e-08
2.3491466e-05
7.3664622e-08
8.0808908e-08
2.3409641e-05
7.2914613e-08
7.8880368e-08
2.33294e-05
7.2170699e-08
7.7015514e-08
2.3250698e-05
7.1431307e-08
7.5211032e-08
2.3173492e-05
7.069487e-08
7.3463627e-08
2.3097745e-05
6.9960221e-08
7.1770052e-08
2.3023418e-05
6.922799e-08
7.0126992e-08
2.2950477e-05
6.8503518e-08
6.8531193e-08
2.2878889e-05
6.7802899e-08
6.6979713e-08
2.2808619e-05
6.7165069e-08
6.5471577e-08
2.2739625e-05
6.6675249e-08
6.4013334e-08
2.267185e-05
6.6507087e-08
6.2642295e-08
2.2605149e-05
6.6990754e-08
6.1532351e-08
2.2538888e-05
6.8686048e-08
6.1499872e-08
2.2471121e-05
7.2226976e-08
6.4845122e-08
7.6722843e-08
9.8461334e-08
0.0001051979
1.3340884e-06
6.4961222e-06
9.9496561e-05
2.3731022e-06
6.6011947e-06
9.4262459e-05
2.9019223e-06
6.1610799e-06
8.9251186e-05
3.0856641e-06
5.9094196e-06
8.4493497e-05
3.0947347e-06
5.6224614e-06
8.0033635e-05
2.9846656e-06
5.265134e-06
7.5876907e-05
2.7790155e-06
4.8792667e-06
7.2014635e-05
2.5106843e-06
4.4927895e-06
6.8436293e-05
2.2128728e-06
4.116949e-06
6.5131387e-05
1.9107259e-06
3.7575292e-06
6.208941e-05
1.621732e-06
3.4186596e-06
5.9299432e-05
1.3573877e-06
3.1029661e-06
5.6749589e-05
1.1240344e-06
2.8116387e-06
5.4426788e-05
9.2377946e-07
2.5448158e-06
5.2316754e-05
7.5572796e-07
2.3019466e-06
5.0404313e-05
6.1717855e-07
2.0820302e-06
4.8673788e-05
5.0454347e-07
1.8837772e-06
4.7109414e-05
4.1397179e-07
1.7057274e-06
4.5695713e-05
3.4173646e-07
1.5463363e-06
4.4417792e-05
2.8445145e-07
1.4040359e-06
4.3261575e-05
2.3917113e-07
1.2772781e-06
4.2213952e-05
2.0341505e-07
1.1645652e-06
4.1262871e-05
1.7514742e-07
1.0644718e-06
4.039737e-05
1.5273231e-07
9.7565897e-07
3.9607583e-05
1.3487525e-07
8.9688145e-07
3.8884688e-05
1.2055566e-07
8.2701639e-07
3.8220848e-05
1.0901089e-07
7.6501853e-07
3.7609155e-05
9.9633855e-08
7.0994489e-07
3.7043542e-05
9.1977437e-08
6.609509e-07
3.6518702e-05
8.5705797e-08
6.1728292e-07
3.6030009e-05
8.0552376e-08
5.7827308e-07
3.5573433e-05
7.6308292e-08
5.4333412e-07
3.5145475e-05
7.2811258e-08
5.1195029e-07
3.4743091e-05
6.993414e-08
4.8367022e-07
3.4363641e-05
6.7575452e-08
4.5810065e-07
3.4004828e-05
6.5652889e-08
4.3489996e-07
3.3664659e-05
6.4098583e-08
4.1377209e-07
3.3341393e-05
6.2855929e-08
3.9446094e-07
3.3033513e-05
6.1877024e-08
3.7674526e-07
3.2739693e-05
6.1121095e-08
3.6043424e-07
3.2458768e-05
6.0553063e-08
3.4536328e-07
3.2189712e-05
6.0142661e-08
3.3139054e-07
3.1931622e-05
5.9863645e-08
3.1839374e-07
3.1683696e-05
5.9693146e-08
3.0626735e-07
3.1445219e-05
5.961122e-08
2.949201e-07
3.1215555e-05
5.9600633e-08
2.8427316e-07
3.0994132e-05
5.964656e-08
2.7425807e-07
3.0780436e-05
5.9736171e-08
2.6481541e-07
3.0574002e-05
5.9858663e-08
2.5589335e-07
3.0374407e-05
6.000492e-08
2.4744658e-07
3.0181267e-05
6.0167647e-08
2.3943546e-07
2.9994229e-05
6.0341261e-08
2.3182484e-07
2.9812971e-05
6.0521819e-08
2.2458372e-07
2.9637193e-05
6.0704453e-08
2.1768455e-07
2.9466629e-05
6.0867277e-08
2.1110457e-07
2.9301024e-05
6.1016993e-08
2.0482179e-07
2.914014e-05
6.1160862e-08
1.9881568e-07
2.8983756e-05
6.1294939e-08
1.9306837e-07
2.8831669e-05
6.1415441e-08
1.8756389e-07
2.8683688e-05
6.152093e-08
1.8228763e-07
2.8539633e-05
6.1610559e-08
1.7722635e-07
2.8399336e-05
6.1683754e-08
1.7236785e-07
2.8262639e-05
6.1740479e-08
1.6770092e-07
2.8129394e-05
6.178066e-08
1.6321518e-07
2.7999461e-05
6.1803853e-08
1.5890118e-07
2.7872709e-05
6.1807346e-08
1.5475034e-07
2.7749012e-05
6.1793553e-08
1.507544e-07
2.7628253e-05
6.1764817e-08
1.4690555e-07
2.7510319e-05
6.1721009e-08
1.4319661e-07
2.7395105e-05
6.1662119e-08
1.3962082e-07
2.728251e-05
6.1588634e-08
1.3617197e-07
2.7172439e-05
6.1501069e-08
1.3284417e-07
2.7064802e-05
6.1399986e-08
1.2963189e-07
2.6959511e-05
6.1285932e-08
1.2652986e-07
2.6856486e-05
6.115954e-08
1.2353325e-07
2.6755649e-05
6.1021301e-08
1.206373e-07
2.6656924e-05
6.0871852e-08
1.1783766e-07
2.6560242e-05
6.0711705e-08
1.1513014e-07
2.6465535e-05
6.0541353e-08
1.1251078e-07
2.6372738e-05
6.0361317e-08
1.099758e-07
2.6281791e-05
6.0171955e-08
1.0752158e-07
2.6192636e-05
5.9973568e-08
1.0514473e-07
2.6105215e-05
5.9766315e-08
1.0284182e-07
2.6019477e-05
5.9550274e-08
1.0060974e-07
2.5935371e-05
5.9325122e-08
9.8445283e-08
2.585285e-05
5.9090474e-08
9.634539e-08
2.5771868e-05
5.8845488e-08
9.4306963e-08
2.5692384e-05
5.8588977e-08
9.2326747e-08
2.5614357e-05
5.8319831e-08
9.040145e-08
2.5537753e-05
5.8037102e-08
8.8527335e-08
2.5462539e-05
5.7741626e-08
8.6700207e-08
2.5388689e-05
5.7438394e-08
8.4915168e-08
2.5316184e-05
5.7141434e-08
8.3166631e-08
2.5245017e-05
5.6882605e-08
8.1449629e-08
2.51752e-05
5.6726047e-08
7.9765808e-08
2.510677e-05
5.6787893e-08
7.8149189e-08
2.5039729e-05
5.725158e-08
7.6780953e-08
2.4973573e-05
5.8330941e-08
7.6510211e-08
2.4906079e-05
5.9989486e-08
7.9732171e-08
6.0714988e-08
1.1287824e-07
0.00010503672
9.078937e-07
6.5005614e-06
9.9140653e-05
1.6524914e-06
6.6166802e-06
9.3788329e-05
2.0825241e-06
6.1717217e-06
8.8708526e-05
2.2549373e-06
5.91053e-06
8.3909682e-05
2.278404e-06
5.6151748e-06
7.9437109e-05
2.2074821e-06
5.2497564e-06
7.5296201e-05
2.0645348e-06
4.8553893e-06
7.1474034e-05
1.8722543e-06
4.460597e-06
6.7955013e-05
1.6547667e-06
4.077127e-06
6.4723621e-05
1.4313505e-06
3.7107669e-06
6.1764423e-05
1.2154297e-06
3.3655007e-06
5.9062056e-05
1.015864e-06
3.0438911e-06
5.6601108e-05
8.3782742e-07
2.7471548e-06
5.4365944e-05
6.8344647e-07
2.475497e-06
5.2340648e-05
5.5258525e-07
2.2284383e-06
5.0509125e-05
4.4366546e-07
2.0050361e-06
4.8855299e-05
3.5433453e-07
1.8040352e-06
4.7363353e-05
2.8193589e-07
1.6239821e-06
4.6017963e-05
2.2381344e-07
1.4633127e-06
4.4804502e-05
1.7749381e-07
1.3204181e-06
4.3709199e-05
1.4078087e-07
1.1936935e-06
4.2719248e-05
1.1179154e-07
1.081575e-06
4.1822875e-05
8.8954525e-08
9.8256583e-07
4.1009364e-05
7.0987968e-08
8.9525475e-07
4.0269054e-05
5.6861784e-08
8.1832381e-07
3.9593306e-05
4.5719099e-08
7.5058478e-07
3.8974405e-05
3.6977858e-08
6.9093437e-07
3.8405585e-05
3.0067345e-08
6.3838633e-07
3.7880869e-05
2.4650857e-08
5.9204243e-07
3.7395029e-05
2.0439997e-08
5.5110609e-07
3.6943514e-05
1.7190287e-08
5.1487716e-07
3.6522366e-05
1.4716741e-08
4.8273957e-07
3.6128148e-05
1.2874777e-08
4.5415389e-07
3.5757883e-05
1.1549904e-08
4.2864941e-07
3.5408991e-05
1.0650765e-08
4.0581704e-07
3.5079238e-05
1.0103607e-08
3.8530225e-07
3.4766689e-05
9.8482567e-09
3.6679879e-07
3.4469668e-05
9.8351121e-09
3.5004234e-07
3.4186716e-05
1.0022962e-08
3.3480552e-07
3.3916567e-05
1.0377052e-08
3.2089287e-07
3.3658116e-05
1.0868076e-08
3.0813658e-07
3.3410395e-05
1.1470991e-08
2.9639282e-07
3.3172556e-05
1.2164229e-08
2.8553823e-07
3.2943852e-05
1.2929286e-08
2.7546719e-07
3.2723625e-05
1.3750166e-08
2.6608891e-07
3.2511286e-05
1.4613111e-08
2.5732572e-07
3.2306316e-05
1.5506251e-08
2.4911067e-07
3.2108246e-05
1.6419586e-08
2.4138619e-07
3.1916658e-05
1.7344664e-08
2.341027e-07
3.1731171e-05
1.8274332e-08
2.2721712e-07
3.1551444e-05
1.92032e-08
2.2069214e-07
3.1377162e-05
2.0127738e-08
2.1449506e-07
3.1208038e-05
2.1048632e-08
2.0859677e-07
3.10438e-05
2.1972754e-08
2.0297052e-07
3.0884232e-05
2.2827836e-08
1.9760737e-07
3.0729103e-05
2.3662937e-08
1.9248226e-07
3.05782e-05
2.4490007e-08
1.8757381e-07
3.0431331e-05
2.5296281e-08
1.8286761e-07
3.0288318e-05
2.6078001e-08
1.7835077e-07
3.0148994e-05
2.6834288e-08
1.7401106e-07
3.0013202e-05
2.7564663e-08
1.6983754e-07
2.9880797e-05
2.8268929e-08
1.6582024e-07
2.975164e-05
2.8947402e-08
1.6195014e-07
2.96256e-05
2.9600754e-08
1.5821898e-07
2.9502557e-05
3.0228564e-08
1.5461922e-07
2.9382396e-05
3.0823589e-08
1.5114466e-07
2.9265007e-05
3.139312e-08
1.4778877e-07
2.9150287e-05
3.1939586e-08
1.4454536e-07
2.9038137e-05
3.2461858e-08
1.4140901e-07
2.8928465e-05
3.2960047e-08
1.3837461e-07
2.8821181e-05
3.343472e-08
1.3543751e-07
2.8716203e-05
3.3886371e-08
1.325933e-07
2.8613449e-05
3.4315526e-08
1.2983787e-07
2.8512845e-05
3.4722881e-08
1.2716736e-07
2.8414317e-05
3.5108972e-08
1.2457813e-07
2.8317797e-05
3.547446e-08
1.2206679e-07
2.8223219e-05
3.5819896e-08
1.1963007e-07
2.813052e-05
3.6145928e-08
1.1726493e-07
2.803964e-05
3.645309e-08
1.1496841e-07
2.7950522e-05
3.6741873e-08
1.1273773e-07
2.7863111e-05
3.7012819e-08
1.1057029e-07
2.7777354e-05
3.7266246e-08
1.0846344e-07
2.7693204e-05
3.750247e-08
1.0641474e-07
2.761061e-05
3.7721593e-08
1.0442174e-07
2.752953e-05
3.7923562e-08
1.0248202e-07
2.7449919e-05
3.8107987e-08
1.0059308e-07
2.7371738e-05
3.8274278e-08
9.8752322e-08
2.7294949e-05
3.8421547e-08
9.6956938e-08
2.7219516e-05
3.854874e-08
9.5203635e-08
2.714541e-05
3.8655132e-08
9.3488632e-08
2.7072603e-05
3.8741134e-08
9.1806965e-08
2.7001079e-05
3.8810263e-08
9.0152326e-08
2.6930832e-05
3.8872154e-08
8.8516564e-08
2.6861876e-05
3.8947436e-08
8.6890536e-08
2.679426e-05
3.9073561e-08
8.5269181e-08
2.6728065e-05
3.9306956e-08
8.367593e-08
2.6663337e-05
3.9708363e-08
8.2271152e-08
2.659956e-05
4.0271972e-08
8.1836181e-08
2.6534295e-05
4.0698016e-08
8.455573e-08
3.9620835e-08
1.1507133e-07
0.00010494757
5.6811078e-07
6.5033076e-06
9.8925416e-05
1.0462983e-06
6.6283517e-06
9.3480449e-05
1.3439844e-06
6.1835066e-06
8.8341777e-05
1.4751324e-06
5.9184763e-06
8.3502084e-05
1.4993911e-06
5.6187065e-06
7.9004057e-05
1.4572411e-06
5.2482679e-06
7.4853978e-05
1.3667382e-06
4.8478757e-06
7.1037378e-05
1.2423973e-06
4.4464569e-06
6.7536063e-05
1.0997693e-06
4.0563128e-06
6.4331998e-05
9.5192359e-07
3.683491e-06
6.1407318e-05
8.0805755e-07
3.3320524e-06
5.8744339e-05
6.7422204e-07
3.0046209e-06
5.6325632e-05
5.5404397e-07
2.7024907e-06
5.4133973e-05
4.4916748e-07
2.4259383e-06
5.2152298e-05
3.59724e-07
2.174536e-06
5.0363747e-05
2.8484513e-07
1.9473718e-06
4.875178e-05
2.2310005e-07
1.7432015e-06
4.7300339e-05
1.7281164e-07
1.5605647e-06
4.5994012e-05
1.3226571e-07
1.3978748e-06
4.4818177e-05
9.9840024e-08
1.2534891e-06
4.3759121e-05
7.4075596e-08
1.1257614e-06
4.2804123e-05
5.3707614e-08
1.0130814e-06
4.1941503e-05
3.7671187e-08
9.1390376e-07
4.1160627e-05
2.5096461e-08
8.2676733e-07
4.0451891e-05
1.5294186e-08
7.5030389e-07
3.980679e-05
7.5281574e-09
6.8329176e-07
3.9217543e-05
1.6727614e-09
6.2455202e-07
3.8677513e-05
-3.0331091e-09
5.7313082e-07
3.8180739e-05
-6.6486794e-09
5.2807354e-07
3.7722004e-05
-9.3594806e-09
4.885345e-07
3.7296777e-05
-1.1371804e-08
4.5378927e-07
3.6901112e-05
-1.2818237e-08
4.2319915e-07
3.6531588e-05
-1.3805322e-08
3.9620478e-07
3.6185236e-05
-1.4417483e-08
3.7231875e-07
3.5859491e-05
-1.4721924e-08
3.5111775e-07
3.5552132e-05
-1.4772635e-08
3.3223576e-07
3.5261237e-05
-1.4613916e-08
3.1535728e-07
3.4985143e-05
-1.4282175e-08
3.0021088e-07
3.472241e-05
-1.3807696e-08
2.8656376e-07
3.4471787e-05
-1.3215852e-08
2.7421634e-07
3.4232185e-05
-1.252816e-08
2.629977e-07
3.4002657e-05
-1.1762775e-08
2.5276175e-07
3.3782373e-05
-1.0935215e-08
2.4338339e-07
3.3570606e-05
-1.0058753e-08
2.3475558e-07
3.3366714e-05
-9.1447374e-09
2.2678674e-07
3.3170131e-05
-8.2028184e-09
2.1939831e-07
3.2980356e-05
-7.2412164e-09
2.12523e-07
3.279694e-05
-6.2668967e-09
2.061028e-07
3.2619482e-05
-5.2855435e-09
2.0008784e-07
3.2447623e-05
-4.3018312e-09
1.9443479e-07
3.228104e-05
-3.3190662e-09
1.8910583e-07
3.2119438e-05
-2.338338e-09
1.8406732e-07
3.1962554e-05
-1.3530625e-09
1.7928645e-07
3.1810075e-05
-2.7633212e-10
1.7472765e-07
3.1661878e-05
5.8585904e-10
1.7043905e-07
3.1517732e-05
1.4356054e-09
1.6637296e-07
3.1377429e-05
2.3038081e-09
1.6248958e-07
3.1240792e-05
3.1586203e-09
1.5877486e-07
3.1107656e-05
3.9969614e-09
1.5521719e-07
3.0977867e-05
4.8171329e-09
1.5180545e-07
3.0851284e-05
5.6179323e-09
1.4852966e-07
3.0727774e-05
6.3990111e-09
1.4538076e-07
3.0607209e-05
7.1608933e-09
1.4235053e-07
3.0489473e-05
7.9059197e-09
1.3943121e-07
3.037445e-05
8.6357401e-09
1.3661579e-07
3.0262049e-05
9.3206459e-09
1.3390398e-07
3.0152163e-05
9.9938075e-09
1.3128565e-07
3.0044697e-05
1.0650407e-08
1.2875513e-07
2.9939564e-05
1.1286732e-08
1.2630831e-07
2.983668e-05
1.1903188e-08
1.2394088e-07
2.9735965e-05
1.2500143e-08
1.2164884e-07
2.9637345e-05
1.3077882e-08
1.1942846e-07
2.9540748e-05
1.3636701e-08
1.1727616e-07
2.9446105e-05
1.417703e-08
1.1518881e-07
2.9353352e-05
1.4699201e-08
1.1316337e-07
2.9262425e-05
1.5203538e-08
1.1119698e-07
2.9173268e-05
1.5690499e-08
1.0928708e-07
2.9085822e-05
1.6160382e-08
1.0743104e-07
2.9000035e-05
1.6613599e-08
1.0562662e-07
2.8915855e-05
1.7050377e-08
1.0387154e-07
2.8833233e-05
1.7471096e-08
1.021636e-07
2.8752123e-05
1.7875952e-08
1.0050082e-07
2.8672479e-05
1.8265094e-08
9.8881096e-08
2.8594259e-05
1.8638536e-08
9.7302506e-08
2.8517424e-05
1.8996216e-08
9.5762967e-08
2.8441934e-05
1.933778e-08
9.4260357e-08
2.8367753e-05
1.9662795e-08
9.2792364e-08
2.8294848e-05
1.9970495e-08
9.1356283e-08
2.8223187e-05
2.026e-08
8.9948874e-08
2.8152746e-05
2.0530687e-08
8.8565926e-08
2.8083503e-05
2.078262e-08
8.7201804e-08
2.8015447e-05
2.1017545e-08
8.5848709e-08
2.7948582e-05
2.1240712e-08
8.4495857e-08
2.7882937e-05
2.1462732e-08
8.3129527e-08
2.7818574e-05
2.1699977e-08
8.1736531e-08
2.7755588e-05
2.1969282e-08
8.0324351e-08
2.7694014e-05
2.2266161e-08
7.9016066e-08
2.7633299e-05
2.2506285e-08
7.8480669e-08
2.7571004e-05
2.2393417e-08
8.0599481e-08
2.0993081e-08
1.0779947e-07
0.00010489986
2.7443376e-07
6.5049155e-06
9.8802772e-05
5.0716632e-07
6.6362236e-06
9.329591e-05
6.5854974e-07
6.1922972e-06
8.8116302e-05
7.2902545e-07
5.9257148e-06