/*--------------------------------*- C++ -*----------------------------------*\
  =========                 |
  \\      /  F ield         | OpenFOAM: The Open Source CFD Toolbox
   \\    /   O peration     | Website:  https://openfoam.org
    \\  /    A nd           | Version:  7
     \\/     M anipulation  |
\*---------------------------------------------------------------------------*/
FoamFile
{
    version     2.0;
    format      ascii;
    class       volVectorField;
    location    "600/water";
    object      U;
}
// * * * * * * * * * * * * * * * * * * * * * * * * * * * * * * * * * * * * * //

dimensions      [0 1 -1 0 0 0 0];

internalField   nonuniform List<vector> 
54000
(
(0.0090020934 0.00020305973 0.00020444027)
(0.0083186447 0.00023622738 0.00023904411)
(0.0073695241 0.00021363852 0.00021763527)
(0.0063566114 0.00018488016 0.00018965819)
(0.0054486673 0.00015530836 0.00016048633)
(0.0046741594 0.00012529952 0.00013052937)
(0.0040193038 9.7052611e-05 0.00010203017)
(0.0034740067 7.2579e-05 7.7073286e-05)
(0.0030302461 5.2876127e-05 5.6738328e-05)
(0.0026757323 3.8068151e-05 4.1216512e-05)
(0.0023947254 2.7637703e-05 3.0037141e-05)
(0.0021713898 2.0689033e-05 2.2336508e-05)
(0.0019919695 1.623616e-05 1.7152703e-05)
(0.0018455015 1.3416235e-05 1.3643172e-05)
(0.0017237326 1.1582489e-05 1.1179121e-05)
(0.0016206928 1.0304891e-05 9.345581e-06)
(0.0015321593 9.3257911e-06 7.8957157e-06)
(0.0014551546 8.5052961e-06 6.6953097e-06)
(0.0013875459 7.7746329e-06 5.6760577e-06)
(0.0013277612 7.103427e-06 4.8034875e-06)
(0.001274601 6.4798493e-06 4.0581562e-06)
(0.0012271179 5.8999464e-06 3.4261579e-06)
(0.0011845424 5.3625312e-06 2.8950715e-06)
(0.001146235 4.8670215e-06 2.452629e-06)
(0.0011116558 4.4126002e-06 2.0869759e-06)
(0.0010803434 3.9980134e-06 1.7867448e-06)
(0.0010519002 3.6214603e-06 1.5416123e-06)
(0.0010259819 3.2805938e-06 1.3421853e-06)
(0.001002289 2.9733941e-06 1.1797318e-06)
(0.00098056199 2.6979491e-06 1.0463212e-06)
(0.00096057571 2.4519202e-06 9.3658981e-07)
(0.00094213242 2.2325659e-06 8.4693346e-07)
(0.00092505792 2.0373867e-06 7.7316629e-07)
(0.00090920047 1.8640893e-06 7.1184233e-07)
(0.00089442818 1.7104631e-06 6.6046653e-07)
(0.0008806259 1.5743828e-06 6.1707329e-07)
(0.00086769295 1.453862e-06 5.8005286e-07)
(0.00085554128 1.34707e-06 5.4811437e-07)
(0.00084409387 1.2523492e-06 5.2023894e-07)
(0.00083328322 1.1681985e-06 4.9562784e-07)
(0.00082305015 1.0932614e-06 4.7365311e-07)
(0.00081334267 1.0262294e-06 4.5378383e-07)
(0.00080411487 9.6585974e-07 4.3554527e-07)
(0.00079532615 9.1131089e-07 4.1865031e-07)
(0.0007869407 8.6191703e-07 4.029066e-07)
(0.00077892675 8.1708333e-07 3.8816842e-07)
(0.00077125603 7.762764e-07 3.7432085e-07)
(0.0007639033 7.3902562e-07 3.6127549e-07)
(0.00075684598 7.0491463e-07 3.4896491e-07)
(0.00075006373 6.735752e-07 3.373323e-07)
(0.00074353822 6.4469403e-07 3.2633671e-07)
(0.00073725294 6.1802603e-07 3.1581777e-07)
(0.00073119314 5.9334706e-07 3.0574402e-07)
(0.00072534528 5.7041941e-07 2.9621119e-07)
(0.00071969687 5.4902435e-07 2.8716606e-07)
(0.00071423653 5.2901439e-07 2.7854255e-07)
(0.00070895386 5.1027349e-07 2.7031111e-07)
(0.00070383928 4.9268683e-07 2.6244789e-07)
(0.00069888397 4.7614449e-07 2.549318e-07)
(0.00069407976 4.6054965e-07 2.477433e-07)
(0.00068941911 4.4582027e-07 2.4086407e-07)
(0.00068489502 4.3188454e-07 2.3427585e-07)
(0.00068050098 4.1867867e-07 2.2796415e-07)
(0.00067623091 4.0614674e-07 2.2191263e-07)
(0.00067207915 3.9423531e-07 2.1610521e-07)
(0.00066804042 3.8289706e-07 2.1053204e-07)
(0.00066410976 3.7209484e-07 2.0517898e-07)
(0.00066028251 3.6179396e-07 2.0003389e-07)
(0.0006565543 3.5196155e-07 1.9508303e-07)
(0.00065292099 3.4256912e-07 1.9031786e-07)
(0.00064937872 3.3358591e-07 1.8572851e-07)
(0.00064592384 3.2498707e-07 1.8130603e-07)
(0.00064255288 3.1675091e-07 1.7704052e-07)
(0.00063926261 3.0885616e-07 1.7292495e-07)
(0.00063604992 3.0128227e-07 1.6895178e-07)
(0.00063291192 2.9401381e-07 1.6511157e-07)
(0.00062984583 2.8703137e-07 1.6139788e-07)
(0.00062684904 2.8032158e-07 1.5780367e-07)
(0.00062391907 2.7387062e-07 1.543209e-07)
(0.00062105358 2.6766591e-07 1.5094232e-07)
(0.00061825035 2.6169525e-07 1.4766163e-07)
(0.00061550726 2.5594585e-07 1.4446956e-07)
(0.00061282235 2.5040706e-07 1.4135904e-07)
(0.00061019373 2.4506906e-07 1.3832431e-07)
(0.00060761964 2.3991863e-07 1.3535583e-07)
(0.00060509845 2.3494575e-07 1.3244882e-07)
(0.00060262862 2.3013551e-07 1.2959787e-07)
(0.00060020873 2.2546934e-07 1.2680414e-07)
(0.00059783744 2.2093204e-07 1.2407534e-07)
(0.00059551348 2.164984e-07 1.2143375e-07)
(0.00059323555 2.1214881e-07 1.1892912e-07)
(0.00059100214 2.0787261e-07 1.1666196e-07)
(0.00058881114 2.0369079e-07 1.1482977e-07)
(0.00058665898 1.9973196e-07 1.1381987e-07)
(0.0005845387 1.9638439e-07 1.1441062e-07)
(0.00058243501 1.9487261e-07 1.1837335e-07)
(0.00058031396 1.9977459e-07 1.3094443e-07)
(0.0005781161 2.225851e-07 1.639773e-07)
(0.00057566369 1.9706873e-07 1.5080577e-07)
(0.00056906201 7.8896445e-07 7.5322545e-07)
(0.0095316863 0.0003313754 0.00022336697)
(0.0092716504 0.00041105942 0.00027052342)
(0.0087756651 0.00040317187 0.00026060063)
(0.0081527518 0.00038218754 0.00024252081)
(0.0075302151 0.00035309574 0.00022101124)
(0.0069425889 0.00031541062 0.00019648834)
(0.006391209 0.00027309198 0.00017102969)
(0.0058791845 0.00023030694 0.00014652546)
(0.0054120202 0.00019001855 0.00012410997)
(0.0049926512 0.00015423459 0.00010436627)
(0.004620592 0.00012408347 8.7479017e-05)
(0.0042931332 9.9809402e-05 7.3327496e-05)
(0.0040063965 8.0956423e-05 6.1601504e-05)
(0.0037559538 6.6672209e-05 5.1918794e-05)
(0.0035372541 5.5985799e-05 4.3907443e-05)
(0.003345947 4.7992056e-05 3.7246645e-05)
(0.0031780884 4.194171e-05 3.167753e-05)
(0.0030302311 3.7262445e-05 2.699792e-05)
(0.0028994324 3.3540995e-05 2.3051138e-05)
(0.0027832152 3.0490244e-05 1.9714593e-05)
(0.0026795075 2.7915734e-05 1.6890544e-05)
(0.0025865783 2.568784e-05 1.4499383e-05)
(0.002502978 2.3720893e-05 1.2475016e-05)
(0.0024274871 2.1958431e-05 1.0761725e-05)
(0.0023590736 2.0362995e-05 9.312232e-06)
(0.0022968589 1.8909454e-05 8.0861285e-06)
(0.0022400906 1.7580768e-05 7.0489623e-06)
(0.0021881216 1.6364898e-05 6.1714979e-06)
(0.0021403932 1.5251961e-05 5.4283146e-06)
(0.0020964214 1.4233848e-05 4.7973508e-06)
(0.0020557868 1.3303038e-05 4.2604817e-06)
(0.0020181236 1.2451984e-05 3.802704e-06)
(0.0019831119 1.1673908e-05 3.4109605e-06)
(0.0019504718 1.0962755e-05 3.0744198e-06)
(0.0019199589 1.0312855e-05 2.7842595e-06)
(0.0018913593 9.7188342e-06 2.533179e-06)
(0.0018644851 9.1756459e-06 2.3150732e-06)
(0.0018391716 8.6785714e-06 2.1248305e-06)
(0.0018152735 8.2232425e-06 1.9581835e-06)
(0.001792663 7.80562e-06 1.8115674e-06)
(0.0017712268 7.4219977e-06 1.6820116e-06)
(0.001750865 7.0689386e-06 1.5670708e-06)
(0.0017314886 6.7432695e-06 1.4647428e-06)
(0.0017130186 6.442273e-06 1.3732753e-06)
(0.0016953848 6.1635574e-06 1.2911587e-06)
(0.0016785241 5.9049785e-06 1.2171191e-06)
(0.00166238 5.6646091e-06 1.1500839e-06)
(0.0016469019 5.4407246e-06 1.0891489e-06)
(0.001632044 5.2317778e-06 1.0335542e-06)
(0.0016177649 5.0363847e-06 9.8265428e-07)
(0.0016040271 4.853322e-06 9.3589325e-07)
(0.0015907965 4.6815628e-06 8.9273655e-07)
(0.0015780424 4.5201559e-06 8.5278782e-07)
(0.0015657364 4.3681542e-06 8.1577001e-07)
(0.0015538526 4.2246827e-06 7.8138432e-07)
(0.0015423672 4.0890604e-06 7.4934358e-07)
(0.0015312583 3.9607295e-06 7.194127e-07)
(0.0015205058 3.8391523e-06 6.9138721e-07)
(0.0015100909 3.7238125e-06 6.6509498e-07)
(0.0014999963 3.6142433e-06 6.4038021e-07)
(0.0014902061 3.51003e-06 6.1710919e-07)
(0.0014807053 3.4107983e-06 5.9516021e-07)
(0.00147148 3.3162105e-06 5.7442692e-07)
(0.0014625175 3.2259591e-06 5.54816e-07)
(0.0014538055 3.1397555e-06 5.3623579e-07)
(0.0014453328 3.0573347e-06 5.18614e-07)
(0.0014370889 2.9784708e-06 5.0187823e-07)
(0.0014290637 2.9029582e-06 4.859689e-07)
(0.001421248 2.830602e-06 4.7082395e-07)
(0.001413633 2.7612176e-06 4.5639303e-07)
(0.0014062104 2.6946322e-06 4.4262839e-07)
(0.0013989723 2.6306907e-06 4.2948712e-07)
(0.0013919116 2.5692452e-06 4.1693003e-07)
(0.0013850211 2.5101628e-06 4.0491957e-07)
(0.0013782945 2.4533174e-06 3.934253e-07)
(0.0013717253 2.3985958e-06 3.8241194e-07)
(0.0013653078 2.3458838e-06 3.7185154e-07)
(0.0013590364 2.2950861e-06 3.6171815e-07)
(0.0013529058 2.2461047e-06 3.519837e-07)
(0.001346911 2.198851e-06 3.4262624e-07)
(0.0013410472 2.1532415e-06 3.3362118e-07)
(0.0013353099 2.1091963e-06 3.2494513e-07)
(0.001329695 2.0666367e-06 3.165789e-07)
(0.0013241983 2.0254876e-06 3.0850026e-07)
(0.001318816 1.9856722e-06 3.0068965e-07)
(0.0013135446 1.9471128e-06 2.9313058e-07)
(0.0013083808 1.9097264e-06 2.8580539e-07)
(0.0013033213 1.8734235e-06 2.7870348e-07)
(0.0012983632 1.8381149e-06 2.7181609e-07)
(0.0012935038 1.8037141e-06 2.6515337e-07)
(0.0012887402 1.77017e-06 2.587428e-07)
(0.0012840698 1.7375341e-06 2.5265045e-07)
(0.0012794889 1.7061216e-06 2.4701363e-07)
(0.0012749925 1.6769107e-06 2.421132e-07)
(0.001270572 1.652467e-06 2.3851862e-07)
(0.0012662098 1.6393332e-06 2.3765999e-07)
(0.0012618709 1.6545766e-06 2.4458202e-07)
(0.0012574959 1.7463722e-06 2.7712516e-07)
(0.0012529717 2.0376707e-06 2.6526487e-07)
(0.0012433358 2.9514823e-06 1.3525326e-06)
(0.0095221617 0.00021179965 0.00022180582)
(0.009269783 0.00029872516 0.00026628967)
(0.0088657772 0.00031669844 0.00025526743)
(0.0083755729 0.000317438 0.00023864265)
(0.0078888426 0.00030841043 0.00021987851)
(0.0074276349 0.00028848207 0.00019850457)
(0.006988258 0.00026048391 0.00017617916)
(0.0065698164 0.00022855168 0.00015444521)
(0.0061756011 0.00019596771 0.00013413534)
(0.0058087146 0.00016504408 0.00011567593)
(0.0054706295 0.00013728621 9.9270838e-05)
(0.0051615551 0.00011345265 8.494783e-05)
(0.0048808654 9.3684507e-05 7.2600737e-05)
(0.0046272998 7.7712986e-05 6.2044901e-05)
(0.0043991196 6.5057025e-05 5.3064542e-05)
(0.0041942886 5.5163888e-05 4.544363e-05)
(0.0040106431 4.7493347e-05 3.8982754e-05)
(0.0038460219 4.1561376e-05 3.3506381e-05)
(0.0036983537 3.6958193e-05 2.8864074e-05)
(0.0035657105 3.3351176e-05 2.4928486e-05)
(0.0034463343 3.0479502e-05 2.1592134e-05)
(0.003338646 2.8144768e-05 1.8764099e-05)
(0.003241243 2.6200155e-05 1.6367139e-05)
(0.0031528887 2.4539753e-05 1.4335369e-05)
(0.0030724986 2.3088868e-05 1.2612489e-05)
(0.0029991252 2.1796113e-05 1.1150135e-05)
(0.0029319421 2.0626905e-05 9.9064831e-06)
(0.0028702292 1.9558162e-05 8.8458157e-06)
(0.0028133589 1.8574036e-05 7.9385375e-06)
(0.0027607855 1.766362e-05 7.159823e-06)
(0.0027120345 1.681883e-05 6.4890356e-06)
(0.0026666927 1.6033065e-05 5.9090206e-06)
(0.0026243991 1.5301095e-05 5.4052724e-06)
(0.0025848382 1.4618819e-05 4.9656529e-06)
(0.0025477347 1.3982714e-05 4.5801144e-06)
(0.0025128472 1.3389545e-05 4.240327e-06)
(0.002479964 1.2836282e-05 3.9393557e-06)
(0.0024488994 1.2320059e-05 3.6714258e-06)
(0.0024194896 1.1838145e-05 3.4317264e-06)
(0.00239159 1.138794e-05 3.2162521e-06)
(0.0023650729 1.0966986e-05 3.0216602e-06)
(0.0023398248 1.0573001e-05 2.8451732e-06)
(0.0023157449 1.0203874e-05 2.6844738e-06)
(0.0022927433 9.8575807e-06 2.5375947e-06)
(0.0022707398 9.5322156e-06 2.4028636e-06)
(0.002249662 9.2260286e-06 2.2788656e-06)
(0.0022294453 8.9374193e-06 2.1644003e-06)
(0.0022100312 8.6649293e-06 2.0584371e-06)
(0.0021913666 8.4072386e-06 1.9601009e-06)
(0.0021734038 8.1631556e-06 1.8686316e-06)
(0.0021560989 7.9316227e-06 1.7833666e-06)
(0.0021394122 7.7117246e-06 1.7037075e-06)
(0.0021233074 7.5026021e-06 1.6291514e-06)
(0.0021077512 7.3033801e-06 1.5592829e-06)
(0.0020927129 7.1131891e-06 1.4937194e-06)
(0.0020781645 6.9314176e-06 1.4321055e-06)
(0.0020640799 6.7576072e-06 1.3741144e-06)
(0.0020504351 6.5912614e-06 1.3194622e-06)
(0.0020372075 6.4318795e-06 1.2678954e-06)
(0.0020243766 6.2790072e-06 1.219188e-06)
(0.0020119231 6.1322427e-06 1.1731324e-06)
(0.001999829 5.9912217e-06 1.1295436e-06)
(0.0019880776 5.8556112e-06 1.0882508e-06)
(0.0019766531 5.7251047e-06 1.0490968e-06)
(0.0019655411 5.5994078e-06 1.0119375e-06)
(0.0019547276 5.478245e-06 9.7664729e-07)
(0.0019441999 5.3613903e-06 9.4310131e-07)
(0.0019339458 5.2486482e-06 9.1118938e-07)
(0.0019239539 5.139819e-06 8.8080782e-07)
(0.0019142135 5.0347017e-06 8.5186036e-07)
(0.0019047144 4.9331185e-06 8.2425999e-07)
(0.001895447 4.834901e-06 7.9792473e-07)
(0.0018864023 4.7398908e-06 7.7277991e-07)
(0.0018775718 4.6479431e-06 7.487552e-07)
(0.0018689473 4.5589224e-06 7.2578805e-07)
(0.0018605211 4.4726992e-06 7.0381478e-07)
(0.0018522861 4.3891519e-06 6.8277819e-07)
(0.0018442353 4.3081692e-06 6.6262592e-07)
(0.0018363621 4.2296389e-06 6.4330712e-07)
(0.0018286604 4.1534576e-06 6.2477741e-07)
(0.0018211241 4.0795277e-06 6.0698826e-07)
(0.0018137478 4.0077525e-06 5.8990084e-07)
(0.0018065261 3.9380352e-06 5.7347277e-07)
(0.001799454 3.8702785e-06 5.5766695e-07)
(0.0017925266 3.8043817e-06 5.4244711e-07)
(0.0017857396 3.7402361e-06 5.2777867e-07)
(0.0017790885 3.6777256e-06 5.1363005e-07)
(0.0017725695 3.6167256e-06 4.9997038e-07)
(0.0017661787 3.5571065e-06 4.8677504e-07)
(0.0017599128 3.498761e-06 4.7402565e-07)
(0.0017537682 3.4416544e-06 4.6171e-07)
(0.0017477416 3.3859643e-06 4.4983477e-07)
(0.0017418294 3.3323823e-06 4.384424e-07)
(0.0017360272 3.2827924e-06 4.2764575e-07)
(0.0017303281 3.2417783e-06 4.1776785e-07)
(0.0017247202 3.2200418e-06 4.0999062e-07)
(0.001719183 3.2421554e-06 4.098496e-07)
(0.001713691 3.3643444e-06 4.4114331e-07)
(0.0017081999 3.7072193e-06 4.7353408e-07)
(0.0016974804 4.4611195e-06 1.8634984e-06)
(0.0095012861 0.00013951169 0.00022248511)
(0.0092133349 0.00022408324 0.00026709763)
(0.0088018509 0.0002570094 0.00025529581)
(0.0083306071 0.00026690691 0.0002382081)
(0.0078754299 0.00026502158 0.00021939836)
(0.0074527063 0.0002529565 0.00019823245)
(0.0070564396 0.00023295893 0.00017634609)
(0.0066827538 0.00020836345 0.0001552305)
(0.006331873 0.00018203353 0.00013558338)
(0.0060047052 0.00015603739 0.00011769036)
(0.0057015056 0.000131804 0.00010166909)
(0.0054220192 0.00011020724 8.7524314e-05)
(0.0051656909 9.1631899e-05 7.5171987e-05)
(0.0049316845 7.6091185e-05 6.4472618e-05)
(0.0047188814 6.3363142e-05 5.526115e-05)
(0.0045259349 5.3104942e-05 4.7366821e-05)
(0.0043513547 4.4932758e-05 4.06249e-05)
(0.0041935865 3.8471361e-05 3.4883032e-05)
(0.0040510752 3.3381246e-05 3.0003995e-05)
(0.0039223115 2.9370509e-05 2.5866183e-05)
(0.0038058643 2.6197262e-05 2.2362868e-05)
(0.0037004012 2.3666732e-05 1.9400962e-05)
(0.0036047 2.1625758e-05 1.689961e-05)
(0.0035176529 1.9956327e-05 1.4788823e-05)
(0.0034382652 1.8569047e-05 1.3008104e-05)
(0.0033656513 1.7397364e-05 1.1504745e-05)
(0.0032990266 1.6392005e-05 1.0233524e-05)
(0.0032376995 1.5516241e-05 9.1565338e-06)
(0.0031810636 1.4743887e-05 8.2421115e-06)
(0.0031285885 1.405615e-05 7.4635743e-06)
(0.0030798115 1.3438893e-05 6.7985191e-06)
(0.0030343294 1.2881151e-05 6.2282222e-06)
(0.0029917905 1.2374496e-05 5.7369824e-06)
(0.0029518882 1.191242e-05 5.3116653e-06)
(0.0029143553 1.1489692e-05 4.9413536e-06)
(0.0028789586 1.1101929e-05 4.6170001e-06)
(0.0028454946 1.074538e-05 4.3311214e-06)
(0.0028137847 1.0416776e-05 4.077528e-06)
(0.0027836727 1.0113218e-05 3.8511083e-06)
(0.0027550209 9.8321221e-06 3.6476461e-06)
(0.0027277081 9.5711606e-06 3.4636653e-06)
(0.002701627 9.3282504e-06 3.2963005e-06)
(0.0026766823 9.1015159e-06 3.1431919e-06)
(0.0026527895 8.8892435e-06 3.0023835e-06)
(0.0026298729 8.6898911e-06 2.8722568e-06)
(0.0026078648 8.5020885e-06 2.7514704e-06)
(0.002586704 8.3246172e-06 2.6389102e-06)
(0.0025663358 8.1563967e-06 2.533642e-06)
(0.0025467102 7.9964769e-06 2.434885e-06)
(0.002527782 7.8440272e-06 2.3419783e-06)
(0.0025095101 7.6983386e-06 2.2543604e-06)
(0.0024918566 7.5588112e-06 2.1715442e-06)
(0.0024747871 7.4248996e-06 2.0931125e-06)
(0.0024582699 7.2960215e-06 2.0187199e-06)
(0.0024422756 7.1714402e-06 1.9480693e-06)
(0.0024267775 7.0509298e-06 1.8808995e-06)
(0.0024117506 6.9343779e-06 1.816952e-06)
(0.0023971715 6.82149e-06 1.7560028e-06)
(0.0023830185 6.7119574e-06 1.6978528e-06)
(0.0023692714 6.6055396e-06 1.6423284e-06)
(0.0023559116 6.5020472e-06 1.5892728e-06)
(0.0023429214 6.4013104e-06 1.5385384e-06)
(0.0023302844 6.3031822e-06 1.4899942e-06)
(0.0023179851 6.2075261e-06 1.4435163e-06)
(0.0023060089 6.1142034e-06 1.3989933e-06)
(0.0022943424 6.0230684e-06 1.3563254e-06)
(0.0022829727 5.9340577e-06 1.3154158e-06)
(0.0022718877 5.8471295e-06 1.2761703e-06)
(0.002261076 5.7622046e-06 1.2385023e-06)
(0.0022505267 5.6791979e-06 1.2023312e-06)
(0.0022402296 5.5980429e-06 1.1675822e-06)
(0.0022301752 5.5186722e-06 1.1341873e-06)
(0.0022203542 5.4410304e-06 1.1020811e-06)
(0.002210758 5.3650615e-06 1.0711991e-06)
(0.0022013784 5.2907176e-06 1.0414849e-06)
(0.0021922076 5.2179477e-06 1.0128824e-06)
(0.0021832381 5.1467093e-06 9.8533853e-07)
(0.0021744628 5.0769578e-06 9.5880361e-07)
(0.0021658752 5.0086503e-06 9.3323049e-07)
(0.0021574688 4.9417451e-06 9.0857412e-07)
(0.0021492375 4.8761988e-06 8.8479131e-07)
(0.0021411756 4.8119664e-06 8.6184005e-07)
(0.0021332776 4.748998e-06 8.3967854e-07)
(0.0021255383 4.6872389e-06 8.1827132e-07)
(0.0021179527 4.6266213e-06 7.9757788e-07)
(0.0021105161 4.567067e-06 7.7756028e-07)
(0.0021032242 4.5084809e-06 7.5818487e-07)
(0.0020960727 4.4507545e-06 7.3941115e-07)
(0.0020890577 4.3937749e-06 7.21204e-07)
(0.0020821756 4.3374552e-06 7.0352111e-07)
(0.002075423 4.2818111e-06 6.863219e-07)
(0.0020687967 4.2271326e-06 6.6956043e-07)
(0.0020622937 4.1743532e-06 6.5320365e-07)
(0.002055911 4.1258142e-06 6.3726294e-07)
(0.0020496453 4.0868304e-06 6.2198494e-07)
(0.0020434926 4.0687773e-06 6.0874638e-07)
(0.0020374483 4.0948771e-06 6.0452178e-07)
(0.0020315149 4.209425e-06 6.3987737e-07)
(0.0020256647 4.4797481e-06 7.1688442e-07)
(0.0020144539 4.9057767e-06 2.2695253e-06)
(0.0094902877 9.6726608e-05 0.00022289229)
(0.00917661 0.00016632333 0.00026788105)
(0.0087449456 0.00019969046 0.00025550648)
(0.0082664657 0.00021101604 0.00023762681)
(0.00781215 0.0002109939 0.0002181603)
(0.0073950862 0.0002028236 0.00019646328)
(0.0070087986 0.00018827265 0.00017418493)
(0.006648835 0.00016968865 0.0001528463)
(0.0063142174 0.00014929331 0.00013312182)
(0.0060045996 0.00012875288 0.0001152379)
(0.0057192201 0.00010923291 9.9256792e-05)
(0.0054570682 9.149007e-05 8.514891e-05)
(0.0052170782 7.5923399e-05 7.2816212e-05)
(0.0049981259 6.264333e-05 6.2119134e-05)
(0.0047989841 5.1561152e-05 5.2900048e-05)
(0.0046183234 4.2472277e-05 4.4997976e-05)
(0.0044547458 3.5118725e-05 3.8256897e-05)
(0.0043068267 2.9230544e-05 3.2530442e-05)
(0.0041731526 2.4550834e-05 2.7684339e-05)
(0.0040523509 2.084911e-05 2.3597361e-05)
(0.0039431142 1.7926913e-05 2.0161345e-05)
(0.0038442168 1.56186e-05 1.7280682e-05)
(0.0037545253 1.3789365e-05 1.4871531e-05)
(0.0036730042 1.2331759e-05 1.2860863e-05)
(0.0035987172 1.1161539e-05 1.1185211e-05)
(0.0035308246 1.0213368e-05 9.7889751e-06)
(0.0034685786 9.4380839e-06 8.6250716e-06)
(0.0034113173 8.7971283e-06 7.654315e-06)
(0.0033584589 8.2627209e-06 6.8439394e-06)
(0.0033094933 7.8140826e-06 6.1664557e-06)
(0.0032639753 7.4348232e-06 5.5988451e-06)
(0.0032215172 7.1121305e-06 5.1219267e-06)
(0.0031817817 6.8360961e-06 4.7197271e-06)
(0.0031444758 6.5990206e-06 4.3789722e-06)
(0.0031093448 6.3947811e-06 4.0886804e-06)
(0.0030761678 6.2184047e-06 3.8397976e-06)
(0.0030447526 6.0657969e-06 3.6248788e-06)
(0.003014932 5.9335275e-06 3.4378176e-06)
(0.0029865602 5.8186963e-06 3.2736186e-06)
(0.0029595097 5.7188206e-06 3.128205e-06)
(0.002933669 5.6317508e-06 2.9982616e-06)
(0.0029089401 5.5556265e-06 2.8810988e-06)
(0.0028852364 5.4888244e-06 2.7745347e-06)
(0.0028624815 5.4299127e-06 2.6768113e-06)
(0.0028406075 5.3776425e-06 2.5865052e-06)
(0.0028195538 5.3309239e-06 2.5024723e-06)
(0.0027992664 5.2888089e-06 2.4237889e-06)
(0.0027796963 5.2504821e-06 2.3497117e-06)
(0.0027607998 5.2152413e-06 2.2796373e-06)
(0.002742537 5.1824968e-06 2.2130842e-06)
(0.0027248717 5.1517658e-06 2.1496546e-06)
(0.0027077708 5.1226687e-06 2.0890223e-06)
(0.0026912041 5.0948953e-06 2.0309202e-06)
(0.0026751435 5.0680857e-06 1.9751356e-06)
(0.0026595636 5.0410664e-06 1.9215385e-06)
(0.0026444411 5.01426e-06 1.869967e-06)
(0.002629754 4.9880186e-06 1.8202517e-06)
(0.0026154815 4.9620743e-06 1.7722792e-06)
(0.0026016045 4.9361432e-06 1.7259608e-06)
(0.0025881054 4.9100859e-06 1.681215e-06)
(0.0025749674 4.883835e-06 1.6379661e-06)
(0.002562175 4.8573412e-06 1.5961463e-06)
(0.0025497136 4.8305822e-06 1.5556935e-06)
(0.0025375693 4.8035404e-06 1.5165483e-06)
(0.0025257292 4.7761759e-06 1.4786607e-06)
(0.002514181 4.748384e-06 1.4419858e-06)
(0.0025029134 4.7202745e-06 1.4064841e-06)
(0.0024919154 4.6919142e-06 1.3721021e-06)
(0.0024811765 4.6632908e-06 1.3387973e-06)
(0.002470687 4.6344023e-06 1.3065297e-06)
(0.0024604377 4.6052673e-06 1.2752602e-06)
(0.0024504197 4.5759077e-06 1.2449538e-06)
(0.0024406247 4.5463459e-06 1.2155759e-06)
(0.0024310448 4.5166013e-06 1.187093e-06)
(0.0024216723 4.4866962e-06 1.1594718e-06)
(0.0024125001 4.4566519e-06 1.1326841e-06)
(0.0024035213 4.4264898e-06 1.1066981e-06)
(0.0023947295 4.3962295e-06 1.0814838e-06)
(0.0023861184 4.3658895e-06 1.0570137e-06)
(0.0023776821 4.3354877e-06 1.0332605e-06)
(0.0023694149 4.3050334e-06 1.0101973e-06)
(0.0023613115 4.2745354e-06 9.8779584e-07)
(0.0023533667 4.2439932e-06 9.6603026e-07)
(0.0023455757 4.2133955e-06 9.4487461e-07)
(0.0023379338 4.1827202e-06 9.2430038e-07)
(0.0023304365 4.1519268e-06 9.0427594e-07)
(0.0023230798 4.1209542e-06 8.8477303e-07)
(0.0023158598 4.0897247e-06 8.6575258e-07)
(0.0023087726 4.0581572e-06 8.4717256e-07)
(0.002301815 4.0261921e-06 8.2898093e-07)
(0.0022949838 3.9938775e-06 8.1110665e-07)
(0.0022882766 3.961531e-06 7.9346407e-07)
(0.002281691 3.9300776e-06 7.7594483e-07)
(0.0022752261 3.9016906e-06 7.5847896e-07)
(0.002268882 3.88094e-06 7.4124664e-07)
(0.0022626608 3.8766472e-06 7.2572606e-07)
(0.0022565686 3.9043045e-06 7.1957873e-07)
(0.0022506189 3.9866549e-06 7.5579906e-07)
(0.0022447715 4.1390989e-06 8.4931776e-07)
(0.002233564 4.2832252e-06 2.4122105e-06)
(0.0094843561 6.6886586e-05 0.00022303624)
(0.0091549219 0.00011904886 0.00026838771)
(0.0087072816 0.00014772496 0.00025588053)
(0.0082191888 0.00015892952 0.00023765677)
(0.0077602858 0.00016026049 0.00021787142)
(0.0073412804 0.00015505102 0.00019586613)
(0.0069552494 0.00014481701 0.00017327438)
(0.0065978366 0.00013121474 0.00015165024)
(0.0062677954 0.00011592881 0.00013169211)
(0.0059642872 0.00010028521 0.0001136244)
(0.0056860598 8.5214431e-05 9.7497522e-05)
(0.0054316726 7.1330408e-05 8.3272196e-05)
(0.0051997008 5.8984297e-05 7.0844884e-05)
(0.0049887459 4.8311754e-05 6.0073374e-05)
(0.0047973943 3.9291584e-05 5.079889e-05)
(0.0046242055 3.1804353e-05 4.2859903e-05)
(0.0044677269 2.5679085e-05 3.6099808e-05)
(0.0043265179 2.0725784e-05 3.0371292e-05)
(0.0041991724 1.6756343e-05 2.5538702e-05)
(0.004084339 1.3596837e-05 2.1479083e-05)
(0.0039807371 1.1093753e-05 1.8082324e-05)
(0.0038871692 9.1161635e-06 1.525079e-05)
(0.0038025288 7.5553809e-06 1.2898647e-05)
(0.003725804 6.3231353e-06 1.0950986e-05)
(0.0036560786 5.3488188e-06 9.3426786e-06)
(0.0035925304 4.5751817e-06 8.0166148e-06)
(0.0035344253 3.9620995e-06 6.9239494e-06)
(0.0034811131 3.4726269e-06 6.0250726e-06)
(0.0034320221 3.0815209e-06 5.2862633e-06)
(0.0033866501 2.7702782e-06 4.6792095e-06)
(0.0033445586 2.5236733e-06 4.1805208e-06)
(0.0033053662 2.3295861e-06 3.7707517e-06)
(0.0032687419 2.178497e-06 3.4337452e-06)
(0.0032343982 2.0629055e-06 3.1561105e-06)
(0.0032020863 1.9768089e-06 2.9267965e-06)
(0.0031715907 1.9153166e-06 2.7367041e-06)
(0.0031427248 1.8743808e-06 2.5783555e-06)
(0.0031153267 1.8506047e-06 2.4456289e-06)
(0.0030892563 1.8411243e-06 2.3335233e-06)
(0.0030643915 1.8434997e-06 2.2379674e-06)
(0.003040626 1.8556449e-06 2.1556638e-06)
(0.0030178671 1.8757798e-06 2.0839522e-06)
(0.0029960335 1.9023807e-06 2.0206947e-06)
(0.0029750538 1.9341331e-06 1.9641823e-06)
(0.0029548649 1.9699137e-06 1.9130525e-06)
(0.0029354109 2.0087619e-06 1.8662265e-06)
(0.0029166424 2.0498573e-06 1.8228526e-06)
(0.0028985148 2.0925092e-06 1.7822574e-06)
(0.0028809886 2.1361364e-06 1.7439154e-06)
(0.0028640277 2.1802696e-06 1.7074102e-06)
(0.0028476 2.2245506e-06 1.6724145e-06)
(0.0028316758 2.2687609e-06 1.6386557e-06)
(0.0028162284 2.3128932e-06 1.6058726e-06)
(0.0028012324 2.3570795e-06 1.5738232e-06)
(0.0027866658 2.3978724e-06 1.5431888e-06)
(0.0027725089 2.4362358e-06 1.5136877e-06)
(0.0027587418 2.4734416e-06 1.4848885e-06)
(0.002745346 2.5095358e-06 1.4567006e-06)
(0.002732305 2.5443527e-06 1.4291156e-06)
(0.0027196032 2.5777738e-06 1.4021119e-06)
(0.0027072261 2.609726e-06 1.3756638e-06)
(0.0026951602 2.6401669e-06 1.3497565e-06)
(0.0026833928 2.6690888e-06 1.324375e-06)
(0.0026719116 2.6965041e-06 1.2995089e-06)
(0.0026607054 2.7223731e-06 1.2751531e-06)
(0.0026497635 2.7463558e-06 1.2513132e-06)
(0.002639076 2.7689085e-06 1.2279785e-06)
(0.0026286333 2.7901459e-06 1.205129e-06)
(0.0026184262 2.8099933e-06 1.1827615e-06)
(0.0026084461 2.828432e-06 1.1608708e-06)
(0.0025986849 2.8454927e-06 1.1394502e-06)
(0.0025891348 2.8612174e-06 1.1184909e-06)
(0.0025797885 2.8756491e-06 1.0979863e-06)
(0.002570639 2.8888312e-06 1.0779286e-06)
(0.0025616795 2.9008061e-06 1.058309e-06)
(0.0025529038 2.9116205e-06 1.0391185e-06)
(0.0025443058 2.9213149e-06 1.0203493e-06)
(0.0025358796 2.9299311e-06 1.0019899e-06)
(0.0025276198 2.9375066e-06 9.8403232e-07)
(0.002519521 2.9440795e-06 9.6646525e-07)
(0.0025115783 2.9496805e-06 9.4927982e-07)
(0.0025037869 2.9543368e-06 9.3246234e-07)
(0.0024961421 2.9580684e-06 9.1599998e-07)
(0.0024886396 2.9608809e-06 8.9987996e-07)
(0.0024812752 2.9627728e-06 8.8408505e-07)
(0.002474045 2.9637224e-06 8.6859401e-07)
(0.0024669452 2.9636881e-06 8.533822e-07)
(0.0024599723 2.9626122e-06 8.3841446e-07)
(0.0024531231 2.960431e-06 8.2364319e-07)
(0.0024463945 2.9570972e-06 8.090038e-07)
(0.0024397839 2.9526526e-06 7.9439868e-07)
(0.0024332894 2.9473518e-06 7.796938e-07)
(0.0024269099 2.9419124e-06 7.6470885e-07)
(0.0024206457 2.937921e-06 7.4926011e-07)
(0.0024144993 2.9384195e-06 7.3336488e-07)
(0.0024084767 2.9484956e-06 7.1826416e-07)
(0.0024025877 2.975126e-06 7.111327e-07)
(0.002396846 3.0234614e-06 7.4331231e-07)
(0.0023911946 3.0808287e-06 8.3046513e-07)
(0.0023803644 3.0574249e-06 2.299943e-06)
(0.0094810492 4.4090136e-05 0.00022308885)
(0.0091422796 7.9975482e-05 0.00026874495)
(0.0086839084 0.00010160921 0.00025628771)
(0.0081880903 0.00011101591 0.00023793456)
(0.0077246858 0.00011275117 0.00021798622)
(0.0073029895 0.00010953687 0.00019578738)
(0.0069155191 0.00010266029 0.00017296032)
(0.0065579578 9.3267237e-05 0.0001510852)
(0.006229001 8.2539594e-05 0.00013089045)
(0.005927585 7.1446833e-05 0.00011261412)
(0.0056522063 6.067336e-05 9.6309239e-05)
(0.0054012005 5.0670809e-05 8.1936268e-05)
(0.0051729477 4.1706609e-05 6.9390832e-05)
(0.004965887 3.3898116e-05 5.8529097e-05)
(0.0047784814 2.7249955e-05 4.9189878e-05)
(0.0046092054 2.1693073e-05 4.1208774e-05)
(0.0044565535 1.7117436e-05 3.4426144e-05)
(0.0043190553 1.3395518e-05 2.8691659e-05)
(0.0041952917 1.0397811e-05 2.3866804e-05)
(0.0040839086 8.0023314e-06 1.9826011e-05)
(0.0039836292 6.0997692e-06 1.6456861e-05)
(0.0038932634 4.5956622e-06 1.3659716e-05)
(0.0038117126 3.4106728e-06 1.1347013e-05)
(0.0037379734 2.4799286e-06 9.4422918e-06)
(0.0036711359 1.7515107e-06 7.8790895e-06)
(0.0036103859 1.1749044e-06 6.6010334e-06)
(0.0035549935 7.2234045e-07 5.5561205e-06)
(0.0035043108 3.734247e-07 4.7060692e-06)
(0.0034577717 1.056976e-07 4.0163445e-06)
(0.0034148763 -9.9089471e-08 3.4574137e-06)
(0.0033751872 -2.5333555e-07 3.0054956e-06)
(0.0033383243 -3.6639933e-07 2.6409743e-06)
(0.0033039576 -4.4577829e-07 2.3475727e-06)
(0.0032718009 -4.9748302e-07 2.1118251e-06)
(0.0032416065 -5.2634575e-07 1.9226415e-06)
(0.0032131599 -5.3630944e-07 1.7709157e-06)
(0.0031862758 -5.3063944e-07 1.6492028e-06)
(0.0031607936 -5.1206306e-07 1.5514407e-06)
(0.0031365743 -4.8287263e-07 1.4727112e-06)
(0.0031134976 -4.4500745e-07 1.4090337e-06)
(0.0030914586 -4.0011252e-07 1.3572058e-06)
(0.0030703663 -3.4958103e-07 1.3146564e-06)
(0.0030501409 -2.9459611e-07 1.2793309e-06)
(0.0030307129 -2.3616962e-07 1.2495913e-06)
(0.0030120207 -1.7516668e-07 1.2241402e-06)
(0.0029940105 -1.1232248e-07 1.2019535e-06)
(0.0029766343 -4.8269392e-08 1.1822238e-06)
(0.0029598495 1.6448862e-08 1.1643218e-06)
(0.0029436181 8.135459e-08 1.1477525e-06)
(0.002927906 1.4602284e-07 1.1321243e-06)
(0.0029126825 2.1005841e-07 1.1171191e-06)
(0.0028979201 2.7304956e-07 1.1024391e-06)
(0.0028835935 3.3454257e-07 1.0876606e-06)
(0.0028696773 3.9432469e-07 1.072203e-06)
(0.0028561514 4.5704984e-07 1.0590092e-06)
(0.0028429997 5.2060085e-07 1.0472569e-06)
(0.0028302035 5.8225415e-07 1.035607e-06)
(0.0028177449 6.4163948e-07 1.0238005e-06)
(0.0028056084 6.9902073e-07 1.0118749e-06)
(0.0027937799 7.5456169e-07 9.9986878e-07)
(0.0027822461 8.083504e-07 9.87811e-07)
(0.0027709946 8.6046948e-07 9.7571924e-07)
(0.0027600137 9.1102694e-07 9.6360285e-07)
(0.0027492926 9.6019514e-07 9.5144819e-07)
(0.0027388207 1.0080057e-06 9.3926751e-07)
(0.0027285887 1.05285e-06 9.2746521e-07)
(0.0027185878 1.0958667e-06 9.1582968e-07)
(0.0027088089 1.1374998e-06 9.0425347e-07)
(0.0026992438 1.177767e-06 8.927588e-07)
(0.0026898847 1.2166574e-06 8.8136627e-07)
(0.0026807244 1.2541698e-06 8.7007993e-07)
(0.0026717559 1.2903142e-06 8.5890689e-07)
(0.0026629726 1.325108e-06 8.4785275e-07)
(0.0026543682 1.358574e-06 8.3692276e-07)
(0.0026459367 1.3907411e-06 8.2612208e-07)
(0.0026376723 1.4216363e-06 8.1545318e-07)
(0.0026295698 1.4512901e-06 8.0491964e-07)
(0.0026216238 1.4797331e-06 7.9452227e-07)
(0.0026138294 1.5069916e-06 7.8426323e-07)
(0.002606182 1.5330942e-06 7.7414025e-07)
(0.0025986769 1.5580645e-06 7.6415239e-07)
(0.0025913099 1.5819219e-06 7.5429556e-07)
(0.0025840769 1.6046814e-06 7.4456441e-07)
(0.0025769739 1.6263493e-06 7.3495203e-07)