/*--------------------------------*- C++ -*----------------------------------*\
  =========                 |
  \\      /  F ield         | OpenFOAM: The Open Source CFD Toolbox
   \\    /   O peration     | Website:  https://openfoam.org
    \\  /    A nd           | Version:  7
     \\/     M anipulation  |
\*---------------------------------------------------------------------------*/
FoamFile
{
    version     2.0;
    format      ascii;
    class       volVectorField;
    location    "1850/water";
    object      U;
}
// * * * * * * * * * * * * * * * * * * * * * * * * * * * * * * * * * * * * * //

dimensions      [0 1 -1 0 0 0 0];

internalField   nonuniform List<vector> 
54000
(
(0.0090020934 0.00020305973 0.00020444027)
(0.0083186447 0.00023622738 0.00023904411)
(0.0073695241 0.00021363852 0.00021763527)
(0.0063566114 0.00018488016 0.00018965819)
(0.0054486673 0.00015530836 0.00016048633)
(0.0046741594 0.00012529952 0.00013052937)
(0.0040193038 9.7052611e-05 0.00010203017)
(0.0034740067 7.2578999e-05 7.7073287e-05)
(0.0030302461 5.2876127e-05 5.6738329e-05)
(0.0026757323 3.8068152e-05 4.1216513e-05)
(0.0023947254 2.7637704e-05 3.0037141e-05)
(0.0021713898 2.0689035e-05 2.233651e-05)
(0.0019919695 1.6236161e-05 1.7152704e-05)
(0.0018455015 1.3416235e-05 1.3643173e-05)
(0.0017237326 1.1582489e-05 1.1179123e-05)
(0.0016206928 1.0304891e-05 9.3455813e-06)
(0.0015321593 9.3257908e-06 7.8957151e-06)
(0.0014551546 8.5052961e-06 6.6953107e-06)
(0.0013875459 7.7746337e-06 5.6760586e-06)
(0.0013277612 7.1034285e-06 4.8034868e-06)
(0.001274601 6.4798501e-06 4.0581567e-06)
(0.0012271179 5.899947e-06 3.4261574e-06)
(0.0011845424 5.3625303e-06 2.8950706e-06)
(0.001146235 4.8670211e-06 2.4526288e-06)
(0.0011116558 4.4126002e-06 2.0869766e-06)
(0.0010803434 3.9980129e-06 1.7867452e-06)
(0.0010519002 3.6214596e-06 1.5416124e-06)
(0.0010259819 3.2805939e-06 1.3421849e-06)
(0.001002289 2.973395e-06 1.1797315e-06)
(0.00098056199 2.6979486e-06 1.0463204e-06)
(0.00096057571 2.4519204e-06 9.3659002e-07)
(0.00094213242 2.2325669e-06 8.4693378e-07)
(0.00092505792 2.0373869e-06 7.7316587e-07)
(0.00090920047 1.8640892e-06 7.1184228e-07)
(0.00089442818 1.7104629e-06 6.6046748e-07)
(0.0008806259 1.5743821e-06 6.170738e-07)
(0.00086769295 1.4538614e-06 5.8005272e-07)
(0.00085554128 1.3470717e-06 5.4811488e-07)
(0.00084409387 1.2523503e-06 5.2023845e-07)
(0.00083328322 1.1681986e-06 4.956276e-07)
(0.00082305015 1.0932613e-06 4.7365233e-07)
(0.00081334267 1.02623e-06 4.5378378e-07)
(0.00080411486 9.6585915e-07 4.355449e-07)
(0.00079532615 9.113102e-07 4.186503e-07)
(0.0007869407 8.6191714e-07 4.0290676e-07)
(0.00077892675 8.1708388e-07 3.8816805e-07)
(0.00077125603 7.7627683e-07 3.7432125e-07)
(0.0007639033 7.3902602e-07 3.6127668e-07)
(0.00075684598 7.0491448e-07 3.4896318e-07)
(0.00075006373 6.7357503e-07 3.3733147e-07)
(0.00074353822 6.4469386e-07 3.2633753e-07)
(0.00073725294 6.1802523e-07 3.1581893e-07)
(0.00073119314 5.9334759e-07 3.0574364e-07)
(0.00072534528 5.7042004e-07 2.96211e-07)
(0.00071969687 5.4902454e-07 2.8716632e-07)
(0.00071423653 5.2901457e-07 2.7854362e-07)
(0.00070895386 5.1027407e-07 2.7031152e-07)
(0.00070383928 4.9268731e-07 2.6244815e-07)
(0.00069888397 4.7614512e-07 2.5493221e-07)
(0.00069407976 4.6054985e-07 2.4774398e-07)
(0.00068941911 4.4582004e-07 2.4086457e-07)
(0.00068489502 4.3188574e-07 2.3427592e-07)
(0.00068050098 4.1867999e-07 2.2796424e-07)
(0.00067623091 4.0614648e-07 2.2191133e-07)
(0.00067207915 3.9423539e-07 2.1610575e-07)
(0.00066804042 3.8289732e-07 2.1053056e-07)
(0.00066410976 3.7209486e-07 2.0517804e-07)
(0.00066028251 3.6179379e-07 2.000329e-07)
(0.0006565543 3.5196247e-07 1.9508271e-07)
(0.00065292099 3.4256876e-07 1.9031748e-07)
(0.00064937872 3.33586e-07 1.8572819e-07)
(0.00064592384 3.2498713e-07 1.8130575e-07)
(0.00064255289 3.1675196e-07 1.7704052e-07)
(0.00063926261 3.0885632e-07 1.7292431e-07)
(0.00063604992 3.0128257e-07 1.6895065e-07)
(0.00063291192 2.9401296e-07 1.6511104e-07)
(0.00062984583 2.8703081e-07 1.6139764e-07)
(0.00062684904 2.8032167e-07 1.5780328e-07)
(0.00062391907 2.7387165e-07 1.5431965e-07)
(0.00062105358 2.6766602e-07 1.5094289e-07)
(0.00061825035 2.6169464e-07 1.4766108e-07)
(0.00061550727 2.5594408e-07 1.4446976e-07)
(0.00061282235 2.50406e-07 1.4135973e-07)
(0.00061019373 2.4506918e-07 1.3832402e-07)
(0.00060761965 2.3991961e-07 1.353562e-07)
(0.00060509846 2.3494601e-07 1.3244855e-07)
(0.00060262863 2.301349e-07 1.2959803e-07)
(0.00060020873 2.2547055e-07 1.268049e-07)
(0.00059783744 2.2093151e-07 1.2407531e-07)
(0.00059551348 2.1649858e-07 1.2143429e-07)
(0.00059323555 2.1214878e-07 1.189294e-07)
(0.00059100214 2.0787127e-07 1.1666157e-07)
(0.00058881114 2.0369076e-07 1.1483003e-07)
(0.00058665898 1.9973041e-07 1.1382021e-07)
(0.0005845387 1.963841e-07 1.144109e-07)
(0.00058243501 1.9487197e-07 1.1837353e-07)
(0.00058031396 1.9977398e-07 1.3094437e-07)
(0.0005781161 2.2258483e-07 1.639768e-07)
(0.00057566369 1.970685e-07 1.508067e-07)
(0.000569062 7.8896427e-07 7.5322543e-07)
(0.0095316863 0.0003313754 0.00022336697)
(0.0092716504 0.00041105943 0.00027052342)
(0.0087756651 0.00040317187 0.00026060062)
(0.0081527518 0.00038218754 0.00024252081)
(0.0075302151 0.00035309574 0.00022101124)
(0.0069425889 0.00031541062 0.00019648834)
(0.006391209 0.00027309198 0.00017102969)
(0.0058791845 0.00023030694 0.00014652546)
(0.0054120202 0.00019001855 0.00012410997)
(0.0049926512 0.00015423459 0.00010436627)
(0.004620592 0.00012408347 8.7479018e-05)
(0.0042931332 9.9809404e-05 7.3327496e-05)
(0.0040063965 8.0956424e-05 6.1601504e-05)
(0.0037559538 6.6672209e-05 5.1918795e-05)
(0.0035372541 5.59858e-05 4.3907445e-05)
(0.003345947 4.7992055e-05 3.7246646e-05)
(0.0031780884 4.194171e-05 3.167753e-05)
(0.0030302311 3.7262446e-05 2.6997922e-05)
(0.0028994324 3.3540996e-05 2.3051139e-05)
(0.0027832152 3.0490245e-05 1.9714593e-05)
(0.0026795075 2.7915735e-05 1.6890544e-05)
(0.0025865783 2.5687842e-05 1.4499383e-05)
(0.002502978 2.3720893e-05 1.2475016e-05)
(0.0024274871 2.1958431e-05 1.0761724e-05)
(0.0023590736 2.0362994e-05 9.3122315e-06)
(0.0022968589 1.8909453e-05 8.0861292e-06)
(0.0022400906 1.7580767e-05 7.0489626e-06)
(0.0021881216 1.6364899e-05 6.1714974e-06)
(0.0021403932 1.5251963e-05 5.4283136e-06)
(0.0020964214 1.4233849e-05 4.7973503e-06)
(0.0020557868 1.330304e-05 4.2604823e-06)
(0.0020181236 1.2451985e-05 3.8027035e-06)
(0.0019831119 1.1673909e-05 3.4109596e-06)
(0.0019504718 1.0962756e-05 3.0744203e-06)
(0.0019199589 1.0312854e-05 2.78426e-06)
(0.0018913593 9.7188337e-06 2.5331795e-06)
(0.0018644851 9.1756448e-06 2.3150736e-06)
(0.0018391716 8.6785727e-06 2.1248303e-06)
(0.0018152735 8.2232429e-06 1.9581829e-06)
(0.001792663 7.8056203e-06 1.8115673e-06)
(0.0017712268 7.4219975e-06 1.6820109e-06)
(0.001750865 7.0689372e-06 1.5670703e-06)
(0.0017314886 6.743269e-06 1.4647434e-06)
(0.0017130186 6.4422719e-06 1.3732748e-06)
(0.0016953848 6.1635569e-06 1.2911588e-06)
(0.0016785241 5.904978e-06 1.2171192e-06)
(0.00166238 5.6646099e-06 1.1500845e-06)
(0.0016469019 5.4407253e-06 1.089149e-06)
(0.001632044 5.2317774e-06 1.0335533e-06)
(0.0016177649 5.0363837e-06 9.8265477e-07)
(0.0016040271 4.8533224e-06 9.3589491e-07)
(0.0015907965 4.6815618e-06 8.9273763e-07)
(0.0015780424 4.5201569e-06 8.5278687e-07)
(0.0015657364 4.3681541e-06 8.1577023e-07)
(0.0015538526 4.2246813e-06 7.8138546e-07)
(0.0015423672 4.08906e-06 7.4934474e-07)
(0.0015312583 3.9607293e-06 7.1941295e-07)
(0.0015205058 3.8391517e-06 6.9138787e-07)
(0.0015100909 3.7238127e-06 6.6509403e-07)
(0.0014999963 3.6142434e-06 6.4037917e-07)
(0.0014902061 3.51003e-06 6.1710892e-07)
(0.0014807053 3.410799e-06 5.951604e-07)
(0.00147148 3.3162124e-06 5.7442824e-07)
(0.0014625175 3.2259584e-06 5.5481438e-07)
(0.0014538055 3.1397547e-06 5.3623556e-07)
(0.0014453328 3.0573341e-06 5.1861264e-07)
(0.0014370889 2.9784701e-06 5.0187931e-07)
(0.0014290637 2.9029571e-06 4.8596822e-07)
(0.001421248 2.8306023e-06 4.7082421e-07)
(0.001413633 2.7612169e-06 4.5639239e-07)
(0.0014062104 2.6946323e-06 4.4262838e-07)
(0.0013989723 2.6306894e-06 4.2948612e-07)
(0.0013919116 2.5692457e-06 4.1692977e-07)
(0.0013850212 2.5101626e-06 4.0491973e-07)
(0.0013782945 2.453318e-06 3.934249e-07)
(0.0013717253 2.3985938e-06 3.8241124e-07)
(0.0013653078 2.3458847e-06 3.7185186e-07)
(0.0013590364 2.2950863e-06 3.6171752e-07)
(0.0013529058 2.2461056e-06 3.5198319e-07)
(0.001346911 2.1988519e-06 3.4262567e-07)
(0.0013410472 2.1532424e-06 3.3362022e-07)
(0.0013353099 2.1091949e-06 3.249463e-07)
(0.001329695 2.066636e-06 3.1657935e-07)
(0.0013241983 2.0254879e-06 3.0849947e-07)
(0.001318816 1.9856731e-06 3.0069054e-07)
(0.0013135446 1.9471133e-06 2.9312989e-07)
(0.0013083808 1.9097267e-06 2.8580468e-07)
(0.0013033213 1.873425e-06 2.7870243e-07)
(0.0012983632 1.8381146e-06 2.7181592e-07)
(0.0012935038 1.8037143e-06 2.6515398e-07)
(0.0012887402 1.7701688e-06 2.5874323e-07)
(0.0012840698 1.7375325e-06 2.5265088e-07)
(0.0012794889 1.7061219e-06 2.4701358e-07)
(0.0012749925 1.6769075e-06 2.4211384e-07)
(0.001270572 1.6524665e-06 2.3851845e-07)
(0.0012662098 1.6393315e-06 2.3766015e-07)
(0.0012618709 1.654575e-06 2.4458384e-07)
(0.0012574959 1.7463696e-06 2.7712549e-07)
(0.0012529717 2.0376696e-06 2.652646e-07)
(0.0012433358 2.9514811e-06 1.3525344e-06)
(0.0095221617 0.00021179965 0.00022180582)
(0.009269783 0.00029872516 0.00026628967)
(0.0088657772 0.00031669844 0.00025526743)
(0.0083755729 0.000317438 0.00023864265)
(0.0078888426 0.00030841043 0.00021987851)
(0.0074276349 0.00028848207 0.00019850458)
(0.006988258 0.0002604839 0.00017617916)
(0.0065698164 0.00022855168 0.00015444521)
(0.0061756011 0.00019596771 0.00013413534)
(0.0058087146 0.00016504408 0.00011567593)
(0.0054706295 0.00013728621 9.9270838e-05)
(0.0051615551 0.00011345265 8.4947831e-05)
(0.0048808654 9.3684506e-05 7.2600738e-05)
(0.0046272998 7.7712987e-05 6.2044901e-05)
(0.0043991196 6.5057024e-05 5.3064542e-05)
(0.0041942886 5.5163886e-05 4.544363e-05)
(0.0040106431 4.7493346e-05 3.8982754e-05)
(0.0038460219 4.1561376e-05 3.3506381e-05)
(0.0036983537 3.6958193e-05 2.8864074e-05)
(0.0035657105 3.3351175e-05 2.4928488e-05)
(0.0034463343 3.0479502e-05 2.1592135e-05)
(0.003338646 2.8144768e-05 1.8764099e-05)
(0.003241243 2.6200155e-05 1.6367138e-05)
(0.0031528887 2.4539754e-05 1.4335369e-05)
(0.0030724986 2.3088868e-05 1.2612489e-05)
(0.0029991252 2.1796112e-05 1.1150134e-05)
(0.0029319421 2.0626904e-05 9.906482e-06)
(0.0028702292 1.9558164e-05 8.8458153e-06)
(0.0028133589 1.8574038e-05 7.9385376e-06)
(0.0027607855 1.7663622e-05 7.1598234e-06)
(0.0027120345 1.6818833e-05 6.4890362e-06)
(0.0026666927 1.6033066e-05 5.9090211e-06)
(0.0026243991 1.5301096e-05 5.4052716e-06)
(0.0025848383 1.4618821e-05 4.9656532e-06)
(0.0025477347 1.3982713e-05 4.5801151e-06)
(0.0025128472 1.3389544e-05 4.2403266e-06)
(0.002479964 1.2836282e-05 3.9393559e-06)
(0.0024488994 1.2320058e-05 3.6714261e-06)
(0.0024194896 1.1838144e-05 3.4317256e-06)
(0.00239159 1.1387939e-05 3.2162515e-06)
(0.0023650729 1.0966985e-05 3.0216606e-06)
(0.0023398248 1.0572999e-05 2.8451742e-06)
(0.0023157449 1.0203874e-05 2.6844739e-06)
(0.0022927433 9.8575807e-06 2.537595e-06)
(0.0022707398 9.5322164e-06 2.4028642e-06)
(0.002249662 9.2260274e-06 2.278867e-06)
(0.0022294453 8.9374186e-06 2.1643997e-06)
(0.0022100312 8.6649287e-06 2.0584378e-06)
(0.0021913666 8.4072376e-06 1.9601016e-06)
(0.0021734038 8.1631535e-06 1.8686321e-06)
(0.0021560989 7.9316219e-06 1.7833678e-06)
(0.0021394122 7.7117245e-06 1.7037098e-06)
(0.0021233074 7.5026019e-06 1.629151e-06)
(0.0021077512 7.3033789e-06 1.5592827e-06)
(0.0020927129 7.1131856e-06 1.4937199e-06)
(0.0020781645 6.9314163e-06 1.4321054e-06)
(0.0020640799 6.7576059e-06 1.3741138e-06)
(0.0020504351 6.5912612e-06 1.3194628e-06)
(0.0020372075 6.4318793e-06 1.2678944e-06)
(0.0020243766 6.2790063e-06 1.219186e-06)
(0.0020119231 6.132242e-06 1.1731321e-06)
(0.001999829 5.9912194e-06 1.1295433e-06)
(0.0019880776 5.8556105e-06 1.08825e-06)
(0.0019766531 5.7251034e-06 1.049096e-06)
(0.0019655411 5.5994074e-06 1.0119379e-06)
(0.0019547276 5.478244e-06 9.7664601e-07)
(0.0019441999 5.36139e-06 9.4310144e-07)
(0.0019339458 5.2486467e-06 9.1118924e-07)
(0.0019239539 5.1398175e-06 8.8080823e-07)
(0.0019142135 5.034701e-06 8.518603e-07)
(0.0019047144 4.9331177e-06 8.2425952e-07)
(0.001895447 4.8348994e-06 7.979246e-07)
(0.0018864023 4.7398903e-06 7.7278014e-07)
(0.0018775718 4.6479432e-06 7.4875569e-07)
(0.0018689473 4.5589226e-06 7.257874e-07)
(0.0018605211 4.4726989e-06 7.0381388e-07)
(0.0018522861 4.3891536e-06 6.8277707e-07)
(0.0018442353 4.30817e-06 6.6262472e-07)
(0.0018363621 4.2296388e-06 6.4330656e-07)
(0.0018286604 4.1534586e-06 6.2477646e-07)
(0.0018211241 4.0795297e-06 6.0698909e-07)
(0.0018137478 4.0077536e-06 5.8990095e-07)
(0.0018065261 3.9380365e-06 5.7347282e-07)
(0.001799454 3.8702787e-06 5.5766741e-07)
(0.0017925266 3.8043813e-06 5.4244655e-07)
(0.0017857396 3.7402358e-06 5.2777789e-07)
(0.0017790885 3.6777265e-06 5.136296e-07)
(0.0017725695 3.6167268e-06 4.9997063e-07)
(0.0017661787 3.5571066e-06 4.8677519e-07)
(0.0017599128 3.4987607e-06 4.7402548e-07)
(0.0017537682 3.4416524e-06 4.6170979e-07)
(0.0017477416 3.3859639e-06 4.4983616e-07)
(0.0017418294 3.3323821e-06 4.3844274e-07)
(0.0017360272 3.2827908e-06 4.2764643e-07)
(0.0017303281 3.2417759e-06 4.1776832e-07)
(0.0017247202 3.22004e-06 4.0999066e-07)
(0.001719183 3.2421541e-06 4.0985036e-07)
(0.001713691 3.3643414e-06 4.4114488e-07)
(0.0017081999 3.7072177e-06 4.735342e-07)
(0.0016974804 4.4611187e-06 1.8634994e-06)
(0.0095012861 0.00013951169 0.00022248511)
(0.0092133349 0.00022408324 0.00026709763)
(0.0088018509 0.0002570094 0.00025529581)
(0.0083306071 0.00026690691 0.0002382081)
(0.0078754299 0.00026502159 0.00021939837)
(0.0074527063 0.00025295651 0.00019823245)
(0.0070564396 0.00023295893 0.00017634609)
(0.0066827538 0.00020836345 0.0001552305)
(0.006331873 0.00018203353 0.00013558338)
(0.0060047052 0.00015603739 0.00011769036)
(0.0057015056 0.00013180401 0.00010166909)
(0.0054220192 0.00011020725 8.7524313e-05)
(0.0051656909 9.16319e-05 7.5171986e-05)
(0.0049316845 7.6091186e-05 6.4472618e-05)
(0.0047188814 6.3363141e-05 5.526115e-05)
(0.0045259349 5.310494e-05 4.736682e-05)
(0.0043513547 4.4932756e-05 4.06249e-05)
(0.0041935865 3.8471359e-05 3.4883033e-05)
(0.0040510752 3.3381244e-05 3.0003996e-05)
(0.0039223115 2.9370508e-05 2.5866182e-05)
(0.0038058643 2.6197262e-05 2.2362868e-05)
(0.0037004012 2.366673e-05 1.9400963e-05)
(0.0036047 2.1625756e-05 1.689961e-05)
(0.0035176529 1.9956328e-05 1.4788823e-05)
(0.0034382652 1.8569048e-05 1.3008104e-05)
(0.0033656513 1.7397362e-05 1.1504745e-05)
(0.0032990266 1.6392003e-05 1.0233524e-05)
(0.0032376995 1.5516242e-05 9.1565347e-06)
(0.0031810636 1.4743888e-05 8.2421126e-06)
(0.0031285885 1.4056151e-05 7.4635751e-06)
(0.0030798115 1.3438894e-05 6.7985202e-06)
(0.0030343294 1.2881151e-05 6.2282226e-06)
(0.0029917905 1.2374496e-05 5.736982e-06)
(0.0029518882 1.1912421e-05 5.3116662e-06)
(0.0029143553 1.1489692e-05 4.9413535e-06)
(0.0028789586 1.1101929e-05 4.617001e-06)
(0.0028454946 1.074538e-05 4.3311213e-06)
(0.0028137847 1.0416775e-05 4.0775284e-06)
(0.0027836727 1.0113219e-05 3.8511087e-06)
(0.0027550209 9.832121e-06 3.647645e-06)
(0.0027277081 9.5711594e-06 3.4636643e-06)
(0.002701627 9.3282498e-06 3.2963004e-06)
(0.0026766823 9.101515e-06 3.1431914e-06)
(0.0026527895 8.889243e-06 3.002383e-06)
(0.0026298729 8.6898919e-06 2.872256e-06)
(0.0026078648 8.5020882e-06 2.7514711e-06)
(0.002586704 8.3246164e-06 2.6389096e-06)
(0.0025663358 8.1563951e-06 2.5336407e-06)
(0.0025467102 7.9964759e-06 2.4348845e-06)
(0.002527782 7.8440261e-06 2.3419796e-06)
(0.0025095101 7.6983372e-06 2.2543615e-06)
(0.0024918566 7.5588112e-06 2.1715462e-06)
(0.0024747872 7.4248973e-06 2.0931129e-06)
(0.0024582699 7.2960209e-06 2.0187196e-06)
(0.0024422756 7.1714377e-06 1.9480699e-06)
(0.0024267775 7.0509285e-06 1.880898e-06)
(0.0024117506 6.9343772e-06 1.8169516e-06)
(0.0023971715 6.8214902e-06 1.7560017e-06)
(0.0023830185 6.7119561e-06 1.697852e-06)
(0.0023692714 6.6055379e-06 1.6423284e-06)
(0.0023559116 6.5020457e-06 1.5892717e-06)
(0.0023429214 6.4013083e-06 1.5385383e-06)
(0.0023302844 6.3031797e-06 1.4899933e-06)
(0.0023179851 6.2075249e-06 1.4435162e-06)
(0.0023060089 6.1142034e-06 1.3989933e-06)
(0.0022943424 6.0230676e-06 1.3563253e-06)
(0.0022829727 5.934058e-06 1.3154164e-06)
(0.0022718877 5.8471281e-06 1.27617e-06)
(0.002261076 5.7622035e-06 1.2385019e-06)
(0.0022505267 5.6791978e-06 1.2023311e-06)
(0.0022402296 5.5980424e-06 1.1675835e-06)
(0.0022301752 5.5186728e-06 1.1341885e-06)
(0.0022203542 5.4410311e-06 1.1020803e-06)
(0.002210758 5.3650631e-06 1.0711995e-06)
(0.0022013784 5.2907178e-06 1.0414844e-06)
(0.0021922076 5.2179483e-06 1.0128816e-06)
(0.0021832381 5.1467091e-06 9.8533757e-07)
(0.0021744628 5.0769585e-06 9.5880288e-07)
(0.0021658752 5.00865e-06 9.3323033e-07)
(0.0021574688 4.9417444e-06 9.085743e-07)
(0.0021492375 4.8761987e-06 8.8479149e-07)
(0.0021411756 4.8119671e-06 8.6183897e-07)
(0.0021332776 4.7489992e-06 8.3967942e-07)
(0.0021255383 4.6872391e-06 8.182705e-07)
(0.0021179527 4.6266209e-06 7.9757649e-07)
(0.0021105161 4.5670667e-06 7.7756019e-07)
(0.0021032242 4.5084816e-06 7.5818384e-07)
(0.0020960727 4.4507555e-06 7.3941133e-07)
(0.0020890577 4.3937746e-06 7.2120369e-07)
(0.0020821756 4.3374548e-06 7.0352136e-07)
(0.002075423 4.2818091e-06 6.8632265e-07)
(0.0020687967 4.2271327e-06 6.6956107e-07)
(0.0020622937 4.1743525e-06 6.5320315e-07)
(0.002055911 4.1258136e-06 6.3726184e-07)
(0.0020496453 4.0868276e-06 6.2198477e-07)
(0.0020434926 4.0687757e-06 6.0874689e-07)
(0.0020374483 4.0948763e-06 6.0452179e-07)
(0.0020315149 4.2094245e-06 6.3987796e-07)
(0.0020256647 4.4797474e-06 7.1688432e-07)
(0.0020144539 4.9057761e-06 2.2695252e-06)
(0.0094902877 9.6726608e-05 0.00022289229)
(0.00917661 0.00016632333 0.00026788105)
(0.0087449456 0.00019969046 0.00025550648)
(0.0082664657 0.00021101604 0.00023762681)
(0.00781215 0.0002109939 0.0002181603)
(0.0073950862 0.0002028236 0.00019646328)
(0.0070087986 0.00018827265 0.00017418493)
(0.006648835 0.00016968865 0.0001528463)
(0.0063142174 0.00014929331 0.00013312182)
(0.0060045996 0.00012875288 0.0001152379)
(0.0057192201 0.00010923291 9.9256791e-05)
(0.0054570682 9.149007e-05 8.5148909e-05)
(0.0052170782 7.59234e-05 7.2816211e-05)
(0.0049981259 6.264333e-05 6.2119134e-05)
(0.0047989841 5.1561151e-05 5.2900048e-05)
(0.0046183234 4.2472278e-05 4.4997976e-05)
(0.0044547458 3.5118725e-05 3.8256897e-05)
(0.0043068267 2.9230544e-05 3.2530442e-05)
(0.0041731526 2.4550834e-05 2.7684339e-05)
(0.0040523509 2.0849109e-05 2.3597362e-05)
(0.0039431142 1.7926911e-05 2.0161345e-05)
(0.0038442168 1.5618599e-05 1.7280681e-05)
(0.0037545253 1.3789364e-05 1.487153e-05)
(0.0036730042 1.2331758e-05 1.2860862e-05)
(0.0035987172 1.1161537e-05 1.1185211e-05)
(0.0035308246 1.0213366e-05 9.7889732e-06)
(0.0034685786 9.4380836e-06 8.6250716e-06)
(0.0034113173 8.7971285e-06 7.6543154e-06)
(0.0033584589 8.262722e-06 6.8439399e-06)
(0.0033094933 7.8140822e-06 6.1664553e-06)
(0.0032639753 7.4348233e-06 5.598845e-06)
(0.0032215172 7.1121303e-06 5.1219273e-06)
(0.0031817817 6.8360965e-06 4.7197276e-06)
(0.0031444758 6.5990217e-06 4.3789733e-06)
(0.0031093448 6.3947816e-06 4.0886805e-06)
(0.0030761678 6.2184062e-06 3.8397975e-06)
(0.0030447526 6.0657971e-06 3.6248787e-06)
(0.003014932 5.9335278e-06 3.437818e-06)
(0.0029865602 5.8186966e-06 3.2736183e-06)
(0.0029595097 5.71882e-06 3.1282049e-06)
(0.002933669 5.6317504e-06 2.9982616e-06)
(0.0029089401 5.5556261e-06 2.8810973e-06)
(0.0028852364 5.4888235e-06 2.7745343e-06)
(0.0028624815 5.4299126e-06 2.6768102e-06)
(0.0028406075 5.3776425e-06 2.5865046e-06)
(0.0028195538 5.3309233e-06 2.5024718e-06)
(0.0027992664 5.2888083e-06 2.4237882e-06)
(0.0027796963 5.2504809e-06 2.3497102e-06)
(0.0027607998 5.2152412e-06 2.2796369e-06)
(0.002742537 5.182498e-06 2.213084e-06)
(0.0027248717 5.1517658e-06 2.1496537e-06)
(0.0027077708 5.1226673e-06 2.0890232e-06)
(0.0026912041 5.094895e-06 2.0309205e-06)
(0.0026751435 5.0680865e-06 1.9751363e-06)
(0.0026595636 5.041065e-06 1.9215399e-06)
(0.0026444411 5.0142589e-06 1.8699673e-06)
(0.002629754 4.9880186e-06 1.8202521e-06)
(0.0026154815 4.9620729e-06 1.7722788e-06)
(0.0026016045 4.9361409e-06 1.7259606e-06)
(0.0025881054 4.9100844e-06 1.6812154e-06)
(0.0025749674 4.883834e-06 1.6379659e-06)
(0.002562175 4.8573393e-06 1.5961454e-06)
(0.0025497136 4.8305799e-06 1.5556928e-06)
(0.0025375693 4.8035386e-06 1.5165489e-06)
(0.0025257292 4.7761747e-06 1.4786612e-06)
(0.002514181 4.7483821e-06 1.4419868e-06)
(0.0025029134 4.7202738e-06 1.4064836e-06)
(0.0024919154 4.6919134e-06 1.3721026e-06)
(0.0024811765 4.66329e-06 1.3387984e-06)
(0.002470687 4.6344021e-06 1.3065296e-06)
(0.0024604377 4.6052677e-06 1.2752606e-06)
(0.0024504197 4.5759095e-06 1.2449535e-06)
(0.0024406247 4.5463461e-06 1.2155761e-06)
(0.0024310448 4.5166022e-06 1.1870927e-06)
(0.0024216723 4.4866963e-06 1.1594726e-06)
(0.0024125001 4.4566508e-06 1.1326841e-06)
(0.0024035213 4.4264883e-06 1.1066967e-06)
(0.0023947295 4.3962287e-06 1.0814821e-06)
(0.0023861184 4.3658893e-06 1.0570127e-06)
(0.0023776821 4.3354868e-06 1.0332598e-06)
(0.0023694149 4.3050326e-06 1.0101961e-06)
(0.0023613115 4.2745353e-06 9.8779574e-07)
(0.0023533667 4.2439934e-06 9.6602998e-07)
(0.0023455757 4.2133965e-06 9.4487395e-07)
(0.0023379338 4.1827199e-06 9.2429997e-07)
(0.0023304365 4.1519265e-06 9.0427628e-07)
(0.0023230798 4.1209537e-06 8.8477197e-07)
(0.0023158598 4.0897249e-06 8.657517e-07)
(0.0023087726 4.0581567e-06 8.4717302e-07)
(0.002301815 4.0261918e-06 8.2898136e-07)
(0.0022949838 3.993876e-06 8.1110679e-07)
(0.0022882766 3.9615296e-06 7.934617e-07)
(0.002281691 3.9300765e-06 7.7594389e-07)
(0.0022752261 3.9016897e-06 7.584774e-07)
(0.002268882 3.8809395e-06 7.4124607e-07)
(0.0022626608 3.8766474e-06 7.2572615e-07)
(0.0022565686 3.904304e-06 7.1957977e-07)
(0.0022506189 3.9866539e-06 7.5579941e-07)
(0.0022447715 4.1390998e-06 8.4931644e-07)
(0.002233564 4.2832256e-06 2.412211e-06)
(0.0094843561 6.6886586e-05 0.00022303624)
(0.0091549219 0.00011904886 0.00026838771)
(0.0087072816 0.00014772497 0.00025588053)
(0.0082191888 0.00015892952 0.00023765677)
(0.0077602858 0.00016026049 0.00021787143)
(0.0073412804 0.00015505102 0.00019586613)
(0.0069552494 0.00014481701 0.00017327438)
(0.0065978366 0.00013121473 0.00015165024)
(0.0062677954 0.00011592881 0.00013169211)
(0.0059642872 0.00010028521 0.0001136244)
(0.0056860598 8.5214429e-05 9.7497522e-05)
(0.0054316726 7.1330405e-05 8.3272195e-05)
(0.0051997008 5.8984297e-05 7.0844884e-05)
(0.0049887459 4.8311753e-05 6.0073373e-05)
(0.0047973943 3.9291582e-05 5.0798891e-05)
(0.0046242055 3.1804354e-05 4.2859902e-05)
(0.0044677269 2.5679086e-05 3.6099807e-05)
(0.0043265179 2.0725786e-05 3.037129e-05)
(0.0041991724 1.6756345e-05 2.5538701e-05)
(0.004084339 1.3596838e-05 2.1479082e-05)
(0.0039807371 1.1093753e-05 1.8082323e-05)
(0.0038871692 9.1161635e-06 1.525079e-05)
(0.0038025288 7.5553808e-06 1.2898647e-05)
(0.003725804 6.3231336e-06 1.0950987e-05)
(0.0036560786 5.3488182e-06 9.3426791e-06)
(0.0035925304 4.5751806e-06 8.016613e-06)
(0.0035344253 3.9621003e-06 6.923949e-06)
(0.0034811131 3.4726275e-06 6.0250741e-06)
(0.0034320221 3.0815202e-06 5.2862636e-06)
(0.0033866501 2.7702774e-06 4.6792106e-06)
(0.0033445586 2.5236715e-06 4.1805219e-06)
(0.0033053662 2.3295868e-06 3.7707534e-06)
(0.0032687419 2.1784979e-06 3.4337453e-06)
(0.0032343982 2.0629061e-06 3.1561108e-06)
(0.0032020863 1.9768101e-06 2.9267973e-06)
(0.0031715907 1.9153175e-06 2.7367039e-06)
(0.0031427248 1.8743802e-06 2.5783556e-06)
(0.0031153267 1.8506054e-06 2.4456289e-06)
(0.0030892563 1.8411237e-06 2.3335224e-06)
(0.0030643915 1.8434989e-06 2.2379664e-06)
(0.003040626 1.8556453e-06 2.1556628e-06)
(0.0030178671 1.875779e-06 2.0839514e-06)
(0.0029960335 1.9023809e-06 2.0206943e-06)
(0.0029750538 1.9341333e-06 1.964181e-06)
(0.0029548649 1.969915e-06 1.9130518e-06)
(0.0029354109 2.008763e-06 1.8662276e-06)
(0.0029166424 2.0498576e-06 1.8228526e-06)
(0.0028985148 2.092509e-06 1.7822561e-06)
(0.0028809886 2.1361365e-06 1.7439138e-06)
(0.0028640277 2.1802713e-06 1.7074094e-06)
(0.0028476 2.2245503e-06 1.6724137e-06)
(0.0028316758 2.2687588e-06 1.6386556e-06)
(0.0028162284 2.3128929e-06 1.605872e-06)
(0.0028012324 2.35708e-06 1.5738219e-06)
(0.0027866658 2.3978717e-06 1.5431886e-06)
(0.0027725089 2.4362347e-06 1.5136868e-06)
(0.0027587418 2.4734404e-06 1.4848881e-06)
(0.002745346 2.509534e-06 1.4567003e-06)
(0.002732305 2.5443498e-06 1.4291155e-06)
(0.0027196032 2.5777724e-06 1.4021121e-06)
(0.0027072261 2.6097255e-06 1.375663e-06)
(0.0026951602 2.640166e-06 1.3497552e-06)
(0.0026833928 2.669088e-06 1.3243747e-06)
(0.0026719116 2.6965038e-06 1.2995098e-06)
(0.0026607054 2.7223717e-06 1.2751529e-06)
(0.0026497635 2.7463547e-06 1.2513133e-06)
(0.002639076 2.7689067e-06 1.2279782e-06)
(0.0026286333 2.7901459e-06 1.2051293e-06)
(0.0026184262 2.8099933e-06 1.1827609e-06)
(0.0026084461 2.8284321e-06 1.1608706e-06)
(0.0025986849 2.845493e-06 1.1394494e-06)
(0.0025891348 2.8612179e-06 1.1184903e-06)
(0.0025797885 2.8756479e-06 1.0979862e-06)
(0.002570639 2.8888304e-06 1.0779282e-06)
(0.0025616795 2.900806e-06 1.0583097e-06)
(0.0025529038 2.9116191e-06 1.0391188e-06)
(0.0025443058 2.9213142e-06 1.0203491e-06)
(0.0025358796 2.9299299e-06 1.0019904e-06)
(0.0025276198 2.9375056e-06 9.8403266e-07)
(0.002519521 2.9440791e-06 9.6646498e-07)
(0.0025115783 2.949681e-06 9.4927952e-07)
(0.0025037869 2.9543377e-06 9.324617e-07)
(0.0024961421 2.9580692e-06 9.1600046e-07)
(0.0024886396 2.960882e-06 8.9988006e-07)
(0.0024812752 2.962773e-06 8.8408587e-07)
(0.002474045 2.9637224e-06 8.6859557e-07)
(0.0024669452 2.9636874e-06 8.5338263e-07)
(0.0024599723 2.9626123e-06 8.3841501e-07)
(0.0024531231 2.9604312e-06 8.2364375e-07)
(0.0024463945 2.9570976e-06 8.0900335e-07)
(0.0024397839 2.9526516e-06 7.943989e-07)
(0.0024332895 2.9473504e-06 7.796933e-07)
(0.0024269099 2.9419122e-06 7.6470843e-07)
(0.0024206457 2.9379214e-06 7.4926007e-07)
(0.0024144993 2.9384198e-06 7.3336574e-07)
(0.0024084767 2.9484972e-06 7.1826454e-07)
(0.0024025877 2.9751252e-06 7.1113335e-07)
(0.002396846 3.0234603e-06 7.433136e-07)
(0.0023911946 3.0808297e-06 8.3046574e-07)
(0.0023803644 3.0574255e-06 2.2999435e-06)
(0.0094810492 4.4090135e-05 0.00022308885)
(0.0091422796 7.9975482e-05 0.00026874495)
(0.0086839084 0.00010160921 0.00025628771)
(0.0081880903 0.00011101591 0.00023793456)
(0.0077246858 0.00011275117 0.00021798622)
(0.0073029895 0.00010953687 0.00019578738)
(0.0069155191 0.00010266029 0.00017296032)
(0.0065579578 9.3267235e-05 0.0001510852)
(0.006229001 8.2539592e-05 0.00013089045)
(0.005927585 7.144683e-05 0.00011261412)
(0.0056522063 6.0673357e-05 9.6309239e-05)
(0.0054012005 5.0670806e-05 8.1936268e-05)
(0.0051729477 4.1706608e-05 6.9390832e-05)
(0.004965887 3.3898115e-05 5.8529098e-05)
(0.0047784814 2.7249954e-05 4.918988e-05)
(0.0046092054 2.1693072e-05 4.1208774e-05)
(0.0044565535 1.7117437e-05 3.4426143e-05)
(0.0043190553 1.3395519e-05 2.8691657e-05)
(0.0041952917 1.0397813e-05 2.3866803e-05)
(0.0040839086 8.0023328e-06 1.9826011e-05)
(0.0039836292 6.0997706e-06 1.6456861e-05)
(0.0038932634 4.5956626e-06 1.3659717e-05)
(0.0038117126 3.410674e-06 1.1347011e-05)
(0.0037379734 2.4799291e-06 9.4422909e-06)
(0.0036711359 1.7515113e-06 7.8790888e-06)
(0.0036103859 1.1749046e-06 6.6010326e-06)
(0.0035549935 7.2234053e-07 5.5561211e-06)
(0.0035043108 3.7342497e-07 4.7060703e-06)
(0.0034577717 1.056959e-07 4.0163438e-06)
(0.0034148763 -9.9090137e-08 3.4574133e-06)
(0.0033751872 -2.5333788e-07 3.0054962e-06)
(0.0033383243 -3.663993e-07 2.6409749e-06)
(0.0033039576 -4.4577896e-07 2.3475728e-06)
(0.0032718009 -4.9748366e-07 2.1118261e-06)
(0.0032416065 -5.2634577e-07 1.9226415e-06)
(0.0032131599 -5.363104e-07 1.7709151e-06)
(0.0031862758 -5.3064091e-07 1.6492033e-06)
(0.0031607936 -5.1206221e-07 1.5514408e-06)
(0.0031365743 -4.8287188e-07 1.4727112e-06)
(0.0031134976 -4.4500698e-07 1.4090336e-06)
(0.0030914586 -4.0011118e-07 1.3572056e-06)
(0.0030703663 -3.4958074e-07 1.3146577e-06)
(0.0030501409 -2.945952e-07 1.2793317e-06)
(0.0030307129 -2.3617116e-07 1.2495916e-06)
(0.0030120207 -1.7516573e-07 1.2241399e-06)
(0.0029940105 -1.1232128e-07 1.2019533e-06)
(0.0029766343 -4.8268183e-08 1.1822245e-06)
(0.0029598495 1.644893e-08 1.1643212e-06)
(0.0029436181 8.1355437e-08 1.147753e-06)
(0.002927906 1.4602479e-07 1.1321238e-06)
(0.0029126825 2.1005782e-07 1.1171192e-06)
(0.0028979201 2.730486e-07 1.1024389e-06)
(0.0028835935 3.3454041e-07 1.087661e-06)
(0.0028696773 3.9432375e-07 1.0722027e-06)
(0.0028561514 4.5705033e-07 1.0590089e-06)
(0.0028429997 5.206007e-07 1.047258e-06)
(0.0028302035 5.822539e-07 1.0356079e-06)
(0.0028177449 6.4163822e-07 1.0238005e-06)
(0.0028056084 6.9901895e-07 1.0118741e-06)
(0.0027937799 7.5456122e-07 9.9986887e-07)
(0.0027822461 8.0835082e-07 9.8780981e-07)
(0.0027709946 8.6046965e-07 9.757183e-07)
(0.0027600137 9.1102622e-07 9.63602e-07)
(0.0027492926 9.601957e-07 9.514466e-07)
(0.0027388207 1.0080068e-06 9.392665e-07)
(0.0027285887 1.0528511e-06 9.2746458e-07)
(0.0027185878 1.0958661e-06 9.1582859e-07)
(0.0027088089 1.1375008e-06 9.0425313e-07)
(0.0026992438 1.1777679e-06 8.9275897e-07)
(0.0026898847 1.2166573e-06 8.8136626e-07)
(0.0026807244 1.2541694e-06 8.7007979e-07)
(0.0026717559 1.2903138e-06 8.5890734e-07)
(0.0026629726 1.3251068e-06 8.4785265e-07)
(0.0026543682 1.3585741e-06 8.3692294e-07)
(0.0026459367 1.39074e-06 8.26122e-07)
(0.0026376723 1.4216355e-06 8.1545412e-07)
(0.0026295698 1.4512905e-06 8.0491916e-07)
(0.0026216238 1.4797328e-06 7.9452233e-07)
(0.0026138294 1.5069907e-06 7.842632e-07)
(0.002606182 1.5330934e-06 7.7413999e-07)
(0.0025986769 1.5580648e-06 7.641523e-07)
(0.0025913099 1.5819229e-06 7.5429523e-07)
(0.0025840769 1.6046829e-06 7.4456384e-07)
(0.0025769739 1.6263506e-06 7.3495263e-07)
(0.0025699972 1.646923e-06 7.2544829e-07)