/*--------------------------------*- C++ -*----------------------------------*\
  =========                 |
  \\      /  F ield         | OpenFOAM: The Open Source CFD Toolbox
   \\    /   O peration     | Website:  https://openfoam.org
    \\  /    A nd           | Version:  7
     \\/     M anipulation  |
\*---------------------------------------------------------------------------*/
FoamFile
{
    version     2.0;
    format      ascii;
    class       volVectorField;
    location    "2700/water";
    object      U;
}
// * * * * * * * * * * * * * * * * * * * * * * * * * * * * * * * * * * * * * //

dimensions      [0 1 -1 0 0 0 0];

internalField   nonuniform List<vector> 
54000
(
(0.0090020934 0.00020305973 0.00020444027)
(0.0083186447 0.00023622738 0.00023904411)
(0.0073695241 0.00021363852 0.00021763527)
(0.0063566114 0.00018488016 0.00018965819)
(0.0054486673 0.00015530836 0.00016048633)
(0.0046741594 0.00012529952 0.00013052937)
(0.0040193038 9.705261e-05 0.00010203017)
(0.0034740067 7.2578998e-05 7.7073287e-05)
(0.0030302461 5.2876126e-05 5.6738328e-05)
(0.0026757323 3.8068151e-05 4.1216512e-05)
(0.0023947254 2.7637705e-05 3.003714e-05)
(0.0021713898 2.0689034e-05 2.2336508e-05)
(0.0019919695 1.623616e-05 1.7152703e-05)
(0.0018455015 1.3416236e-05 1.3643172e-05)
(0.0017237326 1.1582488e-05 1.1179122e-05)
(0.0016206928 1.0304891e-05 9.3455819e-06)
(0.0015321593 9.3257905e-06 7.895716e-06)
(0.0014551546 8.5052957e-06 6.6953111e-06)
(0.0013875459 7.7746341e-06 5.6760585e-06)
(0.0013277612 7.1034284e-06 4.8034859e-06)
(0.001274601 6.4798495e-06 4.0581565e-06)
(0.0012271179 5.899946e-06 3.4261571e-06)
(0.0011845424 5.3625298e-06 2.8950712e-06)
(0.001146235 4.8670216e-06 2.4526293e-06)
(0.0011116558 4.4125998e-06 2.0869764e-06)
(0.0010803434 3.9980131e-06 1.786745e-06)
(0.0010519002 3.6214602e-06 1.5416127e-06)
(0.0010259819 3.2805935e-06 1.3421847e-06)
(0.001002289 2.9733958e-06 1.1797304e-06)
(0.00098056199 2.6979485e-06 1.0463195e-06)
(0.00096057572 2.451921e-06 9.3658975e-07)
(0.00094213242 2.2325667e-06 8.4693409e-07)
(0.00092505792 2.037387e-06 7.7316629e-07)
(0.00090920047 1.86409e-06 7.1184246e-07)
(0.00089442818 1.7104627e-06 6.6046645e-07)
(0.0008806259 1.5743831e-06 6.170739e-07)
(0.00086769295 1.453861e-06 5.8005341e-07)
(0.00085554128 1.3470697e-06 5.4811529e-07)
(0.00084409387 1.2523495e-06 5.2023904e-07)
(0.00083328322 1.1681988e-06 4.95627e-07)
(0.00082305015 1.0932611e-06 4.736527e-07)
(0.00081334267 1.0262294e-06 4.537831e-07)
(0.00080411486 9.6585824e-07 4.3554416e-07)
(0.00079532615 9.1131012e-07 4.1865056e-07)
(0.0007869407 8.6191662e-07 4.0290652e-07)
(0.00077892675 8.1708248e-07 3.8816774e-07)
(0.00077125603 7.762768e-07 3.7432115e-07)
(0.0007639033 7.3902578e-07 3.6127672e-07)
(0.00075684598 7.0491458e-07 3.4896402e-07)
(0.00075006373 6.7357527e-07 3.3733172e-07)
(0.00074353822 6.4469327e-07 3.2633748e-07)
(0.00073725294 6.1802515e-07 3.1581838e-07)
(0.00073119314 5.9334768e-07 3.0574319e-07)
(0.00072534528 5.7041964e-07 2.9621094e-07)
(0.00071969687 5.4902402e-07 2.871662e-07)
(0.00071423653 5.2901439e-07 2.7854389e-07)
(0.00070895386 5.1027357e-07 2.7031258e-07)
(0.00070383928 4.9268727e-07 2.6244823e-07)
(0.00069888397 4.7614546e-07 2.5493185e-07)
(0.00069407976 4.605503e-07 2.477435e-07)
(0.00068941911 4.458201e-07 2.4086344e-07)
(0.00068489502 4.3188509e-07 2.3427585e-07)
(0.00068050098 4.1867902e-07 2.2796379e-07)
(0.00067623091 4.0614629e-07 2.2191211e-07)
(0.00067207915 3.9423487e-07 2.1610561e-07)
(0.00066804042 3.8289754e-07 2.1053147e-07)
(0.00066410976 3.7209402e-07 2.051785e-07)
(0.00066028251 3.6179388e-07 2.0003257e-07)
(0.00065655429 3.5196281e-07 1.9508365e-07)
(0.00065292099 3.4256905e-07 1.9031725e-07)
(0.00064937872 3.3358641e-07 1.8572854e-07)
(0.00064592384 3.2498798e-07 1.8130485e-07)
(0.00064255288 3.1675163e-07 1.7703956e-07)
(0.00063926261 3.0885689e-07 1.7292419e-07)
(0.00063604992 3.0128283e-07 1.6895109e-07)
(0.00063291192 2.9401412e-07 1.6511147e-07)
(0.00062984583 2.8703154e-07 1.6139732e-07)
(0.00062684904 2.8032182e-07 1.5780308e-07)
(0.00062391907 2.7387058e-07 1.5432119e-07)
(0.00062105358 2.676654e-07 1.5094212e-07)
(0.00061825035 2.6169415e-07 1.4766097e-07)
(0.00061550726 2.5594536e-07 1.4446908e-07)
(0.00061282235 2.5040739e-07 1.4135962e-07)
(0.00061019373 2.4506948e-07 1.3832424e-07)
(0.00060761964 2.3991958e-07 1.353563e-07)
(0.00060509845 2.3494692e-07 1.3244874e-07)
(0.00060262862 2.3013504e-07 1.2959949e-07)
(0.00060020873 2.2546994e-07 1.2680452e-07)
(0.00059783744 2.2093166e-07 1.2407608e-07)
(0.00059551348 2.1649881e-07 1.2143358e-07)
(0.00059323555 2.1214853e-07 1.1892848e-07)
(0.00059100214 2.0787139e-07 1.1666292e-07)
(0.00058881114 2.0369118e-07 1.1482962e-07)
(0.00058665898 1.9973014e-07 1.1381981e-07)
(0.0005845387 1.9638406e-07 1.1441026e-07)
(0.00058243501 1.9487292e-07 1.1837318e-07)
(0.00058031396 1.9977505e-07 1.3094393e-07)
(0.0005781161 2.2258464e-07 1.6397645e-07)
(0.00057566369 1.9706992e-07 1.5080556e-07)
(0.00056906201 7.8896431e-07 7.5322549e-07)
(0.0095316863 0.0003313754 0.00022336697)
(0.0092716504 0.00041105942 0.00027052342)
(0.0087756651 0.00040317187 0.00026060062)
(0.0081527518 0.00038218754 0.00024252081)
(0.0075302151 0.00035309574 0.00022101124)
(0.0069425889 0.00031541062 0.00019648834)
(0.006391209 0.00027309198 0.00017102969)
(0.0058791845 0.00023030693 0.00014652546)
(0.0054120202 0.00019001855 0.00012410997)
(0.0049926512 0.00015423459 0.00010436627)
(0.004620592 0.00012408347 8.7479017e-05)
(0.0042931332 9.9809404e-05 7.3327495e-05)
(0.0040063965 8.0956423e-05 6.1601504e-05)
(0.0037559538 6.6672209e-05 5.1918795e-05)
(0.0035372541 5.5985799e-05 4.3907445e-05)
(0.003345947 4.7992055e-05 3.7246645e-05)
(0.0031780884 4.194171e-05 3.1677529e-05)
(0.0030302311 3.7262445e-05 2.6997921e-05)
(0.0028994324 3.3540997e-05 2.3051139e-05)
(0.0027832152 3.0490244e-05 1.9714593e-05)
(0.0026795075 2.7915734e-05 1.6890544e-05)
(0.0025865783 2.5687842e-05 1.4499381e-05)
(0.002502978 2.3720892e-05 1.2475015e-05)
(0.0024274871 2.1958431e-05 1.0761725e-05)
(0.0023590736 2.0362993e-05 9.3122321e-06)
(0.0022968589 1.8909454e-05 8.0861287e-06)
(0.0022400906 1.7580768e-05 7.0489617e-06)
(0.0021881216 1.6364898e-05 6.1714972e-06)
(0.0021403932 1.5251964e-05 5.4283135e-06)
(0.0020964214 1.4233849e-05 4.7973505e-06)
(0.0020557868 1.330304e-05 4.2604824e-06)
(0.0020181236 1.2451986e-05 3.8027047e-06)
(0.0019831119 1.1673909e-05 3.410961e-06)
(0.0019504718 1.0962757e-05 3.0744204e-06)
(0.0019199589 1.0312855e-05 2.7842603e-06)
(0.0018913593 9.7188353e-06 2.5331801e-06)
(0.0018644851 9.1756437e-06 2.3150745e-06)
(0.0018391716 8.6785705e-06 2.1248315e-06)
(0.0018152735 8.2232416e-06 1.9581833e-06)
(0.0017926629 7.8056198e-06 1.8115683e-06)
(0.0017712268 7.4219969e-06 1.6820111e-06)
(0.001750865 7.0689364e-06 1.5670705e-06)
(0.0017314886 6.743267e-06 1.4647427e-06)
(0.0017130186 6.4422715e-06 1.373276e-06)
(0.0016953848 6.163556e-06 1.2911591e-06)
(0.0016785241 5.9049777e-06 1.2171196e-06)
(0.00166238 5.6646096e-06 1.1500846e-06)
(0.0016469019 5.4407253e-06 1.0891502e-06)
(0.001632044 5.231777e-06 1.0335537e-06)
(0.0016177648 5.0363836e-06 9.8265417e-07)
(0.0016040271 4.8533218e-06 9.3589454e-07)
(0.0015907965 4.6815614e-06 8.9273717e-07)
(0.0015780424 4.5201566e-06 8.5278634e-07)
(0.0015657364 4.3681537e-06 8.1577037e-07)
(0.0015538526 4.2246822e-06 7.8138508e-07)
(0.0015423672 4.0890603e-06 7.4934606e-07)
(0.0015312583 3.9607285e-06 7.1941292e-07)
(0.0015205058 3.8391528e-06 6.9138681e-07)
(0.0015100909 3.7238134e-06 6.6509334e-07)
(0.0014999963 3.6142431e-06 6.4037924e-07)
(0.0014902061 3.5100297e-06 6.171086e-07)
(0.0014807053 3.4107983e-06 5.9516093e-07)
(0.00147148 3.316212e-06 5.7442772e-07)
(0.0014625175 3.2259594e-06 5.5481446e-07)
(0.0014538055 3.139755e-06 5.3623456e-07)
(0.0014453328 3.0573354e-06 5.1861331e-07)
(0.0014370889 2.9784692e-06 5.0187906e-07)
(0.0014290637 2.9029579e-06 4.8596844e-07)
(0.001421248 2.8306031e-06 4.7082407e-07)
(0.001413633 2.7612176e-06 4.5639229e-07)
(0.0014062104 2.6946329e-06 4.4262811e-07)
(0.0013989723 2.6306919e-06 4.2948762e-07)
(0.0013919116 2.5692461e-06 4.1692979e-07)
(0.0013850211 2.5101645e-06 4.0492048e-07)
(0.0013782945 2.4533189e-06 3.9342483e-07)
(0.0013717253 2.398596e-06 3.8241108e-07)
(0.0013653078 2.3458857e-06 3.7185076e-07)
(0.0013590364 2.2950858e-06 3.6171746e-07)
(0.0013529058 2.2461036e-06 3.5198459e-07)
(0.001346911 2.1988499e-06 3.4262575e-07)
(0.0013410472 2.1532409e-06 3.3361973e-07)
(0.0013353099 2.1091965e-06 3.2494528e-07)
(0.001329695 2.0666367e-06 3.1657841e-07)
(0.0013241983 2.0254886e-06 3.0850041e-07)
(0.001318816 1.9856735e-06 3.0069e-07)
(0.0013135446 1.9471145e-06 2.9313091e-07)
(0.0013083808 1.9097265e-06 2.8580544e-07)
(0.0013033213 1.8734242e-06 2.7870232e-07)
(0.0012983632 1.8381157e-06 2.7181618e-07)
(0.0012935038 1.8037148e-06 2.6515353e-07)
(0.0012887402 1.77017e-06 2.5874192e-07)
(0.0012840698 1.7375338e-06 2.5265003e-07)
(0.0012794889 1.7061225e-06 2.4701284e-07)
(0.0012749925 1.6769075e-06 2.4211308e-07)
(0.001270572 1.6524671e-06 2.3851873e-07)
(0.0012662098 1.639333e-06 2.3765992e-07)
(0.0012618709 1.6545768e-06 2.4458269e-07)
(0.0012574959 1.7463716e-06 2.771254e-07)
(0.0012529717 2.0376714e-06 2.6526357e-07)
(0.0012433358 2.9514824e-06 1.3525326e-06)
(0.0095221617 0.00021179965 0.00022180582)
(0.009269783 0.00029872516 0.00026628967)
(0.0088657772 0.00031669844 0.00025526743)
(0.0083755729 0.000317438 0.00023864265)
(0.0078888426 0.00030841043 0.00021987851)
(0.0074276349 0.00028848207 0.00019850458)
(0.006988258 0.00026048391 0.00017617916)
(0.0065698164 0.00022855168 0.00015444521)
(0.0061756011 0.00019596771 0.00013413534)
(0.0058087146 0.00016504408 0.00011567593)
(0.0054706295 0.00013728621 9.9270838e-05)
(0.0051615551 0.00011345265 8.4947831e-05)
(0.0048808654 9.3684507e-05 7.2600738e-05)
(0.0046272998 7.7712987e-05 6.20449e-05)
(0.0043991196 6.5057024e-05 5.3064543e-05)
(0.0041942886 5.5163886e-05 4.5443629e-05)
(0.0040106431 4.7493347e-05 3.8982753e-05)
(0.0038460219 4.1561377e-05 3.3506381e-05)
(0.0036983537 3.6958194e-05 2.8864075e-05)
(0.0035657105 3.3351174e-05 2.4928486e-05)
(0.0034463343 3.0479501e-05 2.1592135e-05)
(0.003338646 2.8144768e-05 1.8764099e-05)
(0.003241243 2.6200154e-05 1.6367139e-05)
(0.0031528887 2.4539752e-05 1.4335369e-05)
(0.0030724986 2.3088867e-05 1.261249e-05)
(0.0029991252 2.1796112e-05 1.1150134e-05)
(0.0029319421 2.0626905e-05 9.9064817e-06)
(0.0028702292 1.9558163e-05 8.8458162e-06)
(0.0028133589 1.8574037e-05 7.938538e-06)
(0.0027607855 1.7663623e-05 7.1598235e-06)
(0.0027120345 1.6818832e-05 6.489036e-06)
(0.0026666927 1.6033066e-05 5.9090213e-06)
(0.0026243991 1.5301094e-05 5.4052732e-06)
(0.0025848382 1.461882e-05 4.9656527e-06)
(0.0025477347 1.3982714e-05 4.5801141e-06)
(0.0025128472 1.3389544e-05 4.2403262e-06)
(0.002479964 1.2836281e-05 3.9393564e-06)
(0.0024488994 1.2320058e-05 3.671426e-06)
(0.0024194896 1.1838143e-05 3.4317257e-06)
(0.00239159 1.1387938e-05 3.2162509e-06)
(0.0023650729 1.0966984e-05 3.0216604e-06)
(0.0023398248 1.0572998e-05 2.8451744e-06)
(0.0023157449 1.0203873e-05 2.6844751e-06)
(0.0022927433 9.8575792e-06 2.5375949e-06)
(0.0022707398 9.5322143e-06 2.4028638e-06)
(0.002249662 9.2260282e-06 2.2788663e-06)
(0.0022294453 8.9374181e-06 2.1644004e-06)
(0.0022100312 8.6649297e-06 2.058438e-06)
(0.0021913666 8.4072368e-06 1.960101e-06)
(0.0021734038 8.1631534e-06 1.8686323e-06)
(0.0021560989 7.931621e-06 1.7833672e-06)
(0.0021394122 7.7117228e-06 1.703708e-06)
(0.0021233074 7.5026018e-06 1.6291514e-06)
(0.0021077512 7.3033797e-06 1.5592834e-06)
(0.0020927129 7.1131887e-06 1.4937198e-06)
(0.0020781645 6.9314172e-06 1.4321055e-06)
(0.0020640799 6.7576063e-06 1.3741155e-06)
(0.0020504351 6.5912626e-06 1.3194628e-06)
(0.0020372075 6.4318796e-06 1.2678954e-06)
(0.0020243766 6.279006e-06 1.2191873e-06)
(0.0020119231 6.1322419e-06 1.1731321e-06)
(0.001999829 5.9912199e-06 1.1295447e-06)
(0.0019880776 5.8556107e-06 1.0882504e-06)
(0.0019766531 5.7251049e-06 1.0490959e-06)
(0.0019655411 5.5994084e-06 1.0119377e-06)
(0.0019547276 5.4782448e-06 9.766457e-07)
(0.0019441999 5.3613895e-06 9.4310086e-07)
(0.0019339458 5.2486489e-06 9.111902e-07)
(0.0019239539 5.139819e-06 8.8080827e-07)
(0.0019142135 5.0347021e-06 8.5186053e-07)
(0.0019047144 4.9331189e-06 8.2425975e-07)
(0.001895447 4.8349014e-06 7.9792441e-07)
(0.0018864023 4.7398913e-06 7.7278129e-07)
(0.0018775718 4.6479446e-06 7.4875742e-07)
(0.0018689473 4.5589235e-06 7.2578804e-07)
(0.0018605211 4.4726999e-06 7.0381374e-07)
(0.0018522861 4.3891537e-06 6.8277683e-07)
(0.0018442353 4.3081688e-06 6.6262644e-07)
(0.0018363621 4.229638e-06 6.4330825e-07)
(0.0018286604 4.153458e-06 6.2477754e-07)
(0.0018211241 4.0795282e-06 6.0698823e-07)
(0.0018137478 4.0077537e-06 5.8990111e-07)
(0.0018065261 3.9380352e-06 5.7347259e-07)
(0.001799454 3.8702792e-06 5.5766753e-07)
(0.0017925266 3.8043828e-06 5.4244832e-07)
(0.0017857396 3.7402366e-06 5.2777938e-07)
(0.0017790885 3.6777271e-06 5.1362972e-07)
(0.0017725695 3.6167267e-06 4.9997004e-07)
(0.0017661787 3.5571075e-06 4.8677453e-07)
(0.0017599128 3.4987619e-06 4.7402432e-07)
(0.0017537682 3.441655e-06 4.6170952e-07)
(0.0017477416 3.3859658e-06 4.4983555e-07)
(0.0017418294 3.3323836e-06 4.3844243e-07)
(0.0017360272 3.2827918e-06 4.2764652e-07)
(0.0017303281 3.2417774e-06 4.1776832e-07)
(0.0017247202 3.2200401e-06 4.0999106e-07)
(0.001719183 3.2421547e-06 4.0984948e-07)
(0.001713691 3.3643445e-06 4.4114384e-07)
(0.0017081999 3.707219e-06 4.7353414e-07)
(0.0016974804 4.4611198e-06 1.8634994e-06)
(0.0095012861 0.00013951169 0.00022248511)
(0.0092133349 0.00022408324 0.00026709763)
(0.0088018509 0.0002570094 0.00025529581)
(0.0083306071 0.00026690691 0.0002382081)
(0.0078754299 0.00026502158 0.00021939837)
(0.0074527063 0.0002529565 0.00019823245)
(0.0070564396 0.00023295893 0.00017634609)
(0.0066827538 0.00020836345 0.0001552305)
(0.006331873 0.00018203353 0.00013558338)
(0.0060047052 0.00015603739 0.00011769036)
(0.0057015056 0.00013180401 0.00010166909)
(0.0054220192 0.00011020725 8.7524314e-05)
(0.0051656909 9.16319e-05 7.5171986e-05)
(0.0049316845 7.6091186e-05 6.4472619e-05)
(0.0047188814 6.3363143e-05 5.526115e-05)
(0.0045259349 5.3104941e-05 4.7366821e-05)
(0.0043513547 4.4932757e-05 4.06249e-05)
(0.0041935865 3.847136e-05 3.4883032e-05)
(0.0040510752 3.3381245e-05 3.0003994e-05)
(0.0039223115 2.9370508e-05 2.5866182e-05)
(0.0038058643 2.6197263e-05 2.2362868e-05)
(0.0037004012 2.366673e-05 1.9400962e-05)
(0.0036047 2.1625756e-05 1.6899611e-05)
(0.0035176529 1.9956326e-05 1.4788823e-05)
(0.0034382652 1.8569047e-05 1.3008105e-05)
(0.0033656513 1.7397361e-05 1.1504745e-05)
(0.0032990266 1.6392003e-05 1.0233523e-05)
(0.0032376995 1.5516241e-05 9.1565337e-06)
(0.0031810636 1.4743887e-05 8.242112e-06)
(0.0031285885 1.4056152e-05 7.4635752e-06)
(0.0030798115 1.3438893e-05 6.7985197e-06)
(0.0030343294 1.288115e-05 6.2282225e-06)
(0.0029917905 1.2374495e-05 5.7369834e-06)
(0.0029518882 1.1912419e-05 5.3116663e-06)
(0.0029143553 1.1489691e-05 4.9413535e-06)
(0.0028789586 1.1101928e-05 4.6170005e-06)
(0.0028454946 1.0745381e-05 4.3311224e-06)
(0.0028137847 1.0416775e-05 4.0775279e-06)
(0.0027836727 1.0113218e-05 3.8511075e-06)
(0.0027550209 9.8321204e-06 3.6476453e-06)
(0.0027277081 9.5711593e-06 3.4636641e-06)
(0.002701627 9.328249e-06 3.2963015e-06)
(0.0026766823 9.1015149e-06 3.1431909e-06)
(0.0026527895 8.8892417e-06 3.0023817e-06)
(0.0026298729 8.6898913e-06 2.8722556e-06)
(0.0026078648 8.502088e-06 2.7514714e-06)
(0.002586704 8.324617e-06 2.6389104e-06)
(0.0025663358 8.1563966e-06 2.5336418e-06)
(0.0025467102 7.9964753e-06 2.4348841e-06)
(0.002527782 7.8440256e-06 2.341979e-06)
(0.0025095101 7.6983356e-06 2.2543607e-06)
(0.0024918566 7.5588092e-06 2.1715441e-06)
(0.0024747871 7.424898e-06 2.0931133e-06)
(0.0024582699 7.2960225e-06 2.0187205e-06)
(0.0024422756 7.1714397e-06 1.9480697e-06)
(0.0024267775 7.0509299e-06 1.8808993e-06)
(0.0024117506 6.9343791e-06 1.8169526e-06)
(0.0023971715 6.8214908e-06 1.7560027e-06)
(0.0023830185 6.7119562e-06 1.6978519e-06)
(0.0023692714 6.6055392e-06 1.6423281e-06)
(0.0023559116 6.5020452e-06 1.5892721e-06)
(0.0023429214 6.4013083e-06 1.5385385e-06)
(0.0023302844 6.3031797e-06 1.4899941e-06)
(0.0023179851 6.2075253e-06 1.4435159e-06)
(0.0023060089 6.1142045e-06 1.3989939e-06)
(0.0022943424 6.0230685e-06 1.3563257e-06)
(0.0022829727 5.9340579e-06 1.3154165e-06)
(0.0022718877 5.84713e-06 1.2761705e-06)
(0.002261076 5.7622051e-06 1.2385013e-06)
(0.0022505267 5.6791992e-06 1.2023307e-06)
(0.0022402296 5.598043e-06 1.1675822e-06)
(0.0022301752 5.5186739e-06 1.1341881e-06)
(0.0022203542 5.4410319e-06 1.1020817e-06)
(0.002210758 5.3650631e-06 1.0711985e-06)
(0.0022013784 5.2907182e-06 1.0414848e-06)
(0.0021922076 5.2179487e-06 1.0128816e-06)
(0.0021832381 5.1467093e-06 9.8533764e-07)
(0.0021744628 5.0769577e-06 9.5880294e-07)
(0.0021658752 5.0086504e-06 9.332316e-07)
(0.0021574688 4.9417449e-06 9.0857504e-07)
(0.0021492375 4.8761977e-06 8.847912e-07)
(0.0021411756 4.811966e-06 8.6183975e-07)
(0.0021332776 4.7489983e-06 8.3967863e-07)
(0.0021255383 4.6872397e-06 8.1827136e-07)
(0.0021179527 4.6266221e-06 7.9757741e-07)
(0.0021105161 4.567067e-06 7.7756071e-07)
(0.0021032242 4.5084817e-06 7.5818424e-07)
(0.0020960727 4.4507564e-06 7.3941098e-07)
(0.0020890577 4.3937747e-06 7.2120281e-07)
(0.0020821756 4.3374558e-06 7.0352052e-07)
(0.002075423 4.2818118e-06 6.8632172e-07)
(0.0020687967 4.2271339e-06 6.6956152e-07)
(0.0020622937 4.1743552e-06 6.5320331e-07)
(0.002055911 4.1258168e-06 6.3726236e-07)
(0.0020496453 4.0868296e-06 6.2198505e-07)
(0.0020434926 4.0687763e-06 6.087475e-07)
(0.0020374483 4.0948763e-06 6.0452205e-07)
(0.0020315149 4.2094262e-06 6.3987805e-07)
(0.0020256647 4.4797495e-06 7.1688446e-07)
(0.0020144539 4.9057768e-06 2.2695249e-06)
(0.0094902877 9.6726608e-05 0.00022289229)
(0.00917661 0.00016632333 0.00026788105)
(0.0087449456 0.00019969046 0.00025550648)
(0.0082664657 0.00021101604 0.00023762681)
(0.00781215 0.0002109939 0.0002181603)
(0.0073950862 0.0002028236 0.00019646328)
(0.0070087986 0.00018827265 0.00017418493)
(0.006648835 0.00016968865 0.0001528463)
(0.0063142174 0.00014929331 0.00013312182)
(0.0060045996 0.00012875288 0.0001152379)
(0.0057192201 0.00010923292 9.925679e-05)
(0.0054570682 9.1490071e-05 8.514891e-05)
(0.0052170782 7.59234e-05 7.2816212e-05)
(0.0049981259 6.2643331e-05 6.2119133e-05)
(0.0047989841 5.1561152e-05 5.2900048e-05)
(0.0046183234 4.2472279e-05 4.4997976e-05)
(0.0044547458 3.5118726e-05 3.8256896e-05)
(0.0043068267 2.9230543e-05 3.2530442e-05)
(0.0041731526 2.4550834e-05 2.7684339e-05)
(0.0040523509 2.084911e-05 2.3597361e-05)
(0.0039431142 1.7926913e-05 2.0161344e-05)
(0.0038442168 1.5618599e-05 1.7280681e-05)
(0.0037545253 1.3789363e-05 1.4871531e-05)
(0.0036730042 1.2331758e-05 1.2860863e-05)
(0.0035987172 1.1161537e-05 1.1185211e-05)
(0.0035308246 1.0213364e-05 9.7889745e-06)
(0.0034685786 9.4380818e-06 8.6250725e-06)
(0.0034113173 8.7971272e-06 7.6543152e-06)
(0.0033584589 8.2627212e-06 6.84394e-06)
(0.0033094933 7.8140816e-06 6.1664548e-06)
(0.0032639753 7.4348227e-06 5.5988449e-06)
(0.0032215172 7.1121293e-06 5.1219278e-06)
(0.0031817817 6.8360969e-06 4.7197283e-06)
(0.0031444758 6.5990202e-06 4.3789737e-06)
(0.0031093448 6.3947796e-06 4.0886806e-06)
(0.0030761678 6.2184046e-06 3.8397979e-06)
(0.0030447526 6.0657969e-06 3.6248794e-06)
(0.003014932 5.9335271e-06 3.4378176e-06)
(0.0029865602 5.8186963e-06 3.2736179e-06)
(0.0029595097 5.7188181e-06 3.128205e-06)
(0.002933669 5.6317498e-06 2.9982607e-06)
(0.0029089401 5.5556251e-06 2.8810977e-06)
(0.0028852364 5.4888229e-06 2.7745345e-06)
(0.0028624815 5.429913e-06 2.6768111e-06)
(0.0028406075 5.3776432e-06 2.5865046e-06)
(0.0028195538 5.3309234e-06 2.5024731e-06)
(0.0027992664 5.2888092e-06 2.4237892e-06)
(0.0027796963 5.2504823e-06 2.3497111e-06)
(0.0027607998 5.2152408e-06 2.2796379e-06)
(0.002742537 5.1824967e-06 2.2130847e-06)
(0.0027248717 5.1517658e-06 2.1496547e-06)
(0.0027077708 5.1226684e-06 2.089024e-06)
(0.0026912041 5.0948949e-06 2.0309216e-06)
(0.0026751435 5.0680864e-06 1.9751368e-06)
(0.0026595636 5.041065e-06 1.921539e-06)
(0.0026444411 5.0142602e-06 1.8699674e-06)
(0.002629754 4.9880191e-06 1.8202519e-06)
(0.0026154815 4.9620732e-06 1.7722791e-06)
(0.0026016045 4.9361416e-06 1.7259607e-06)
(0.0025881054 4.9100856e-06 1.6812142e-06)
(0.0025749674 4.8838335e-06 1.637966e-06)
(0.002562175 4.8573393e-06 1.5961453e-06)
(0.0025497136 4.8305819e-06 1.5556925e-06)
(0.0025375693 4.8035395e-06 1.5165477e-06)
(0.0025257292 4.776177e-06 1.4786611e-06)
(0.002514181 4.7483835e-06 1.4419859e-06)
(0.0025029134 4.7202753e-06 1.4064822e-06)
(0.0024919154 4.6919139e-06 1.3721012e-06)
(0.0024811765 4.6632915e-06 1.3387969e-06)
(0.002470687 4.6344039e-06 1.3065297e-06)
(0.0024604377 4.6052688e-06 1.2752608e-06)
(0.0024504197 4.575911e-06 1.2449542e-06)
(0.0024406247 4.5463486e-06 1.2155758e-06)
(0.0024310448 4.5166025e-06 1.1870926e-06)
(0.0024216723 4.4866967e-06 1.1594728e-06)
(0.0024125001 4.4566517e-06 1.1326845e-06)
(0.0024035213 4.4264891e-06 1.1066973e-06)
(0.0023947295 4.3962293e-06 1.0814832e-06)
(0.0023861184 4.3658899e-06 1.0570137e-06)
(0.0023776821 4.3354863e-06 1.03326e-06)
(0.0023694149 4.3050324e-06 1.0101971e-06)
(0.0023613115 4.2745352e-06 9.8779574e-07)
(0.0023533667 4.2439931e-06 9.6603158e-07)
(0.0023455757 4.2133964e-06 9.4487424e-07)
(0.0023379338 4.1827199e-06 9.2429987e-07)
(0.0023304365 4.1519259e-06 9.0427712e-07)
(0.0023230798 4.1209528e-06 8.8477261e-07)
(0.0023158598 4.0897253e-06 8.6575137e-07)
(0.0023087726 4.0581568e-06 8.4717258e-07)
(0.002301815 4.0261914e-06 8.2898044e-07)
(0.0022949838 3.9938781e-06 8.1110734e-07)
(0.0022882766 3.9615307e-06 7.9346273e-07)
(0.002281691 3.9300791e-06 7.7594317e-07)
(0.0022752261 3.9016931e-06 7.5847805e-07)
(0.002268882 3.8809407e-06 7.4124767e-07)
(0.0022626608 3.8766474e-06 7.2572678e-07)
(0.0022565686 3.9043042e-06 7.1957991e-07)
(0.0022506189 3.9866545e-06 7.5579897e-07)
(0.0022447715 4.1391011e-06 8.4931668e-07)
(0.002233564 4.2832258e-06 2.4122104e-06)
(0.0094843561 6.6886586e-05 0.00022303624)
(0.0091549219 0.00011904886 0.00026838771)
(0.0087072816 0.00014772496 0.00025588053)
(0.0082191888 0.00015892952 0.00023765677)
(0.0077602858 0.00016026049 0.00021787142)
(0.0073412804 0.00015505102 0.00019586613)
(0.0069552494 0.00014481701 0.00017327438)
(0.0065978366 0.00013121474 0.00015165024)
(0.0062677954 0.00011592881 0.00013169211)
(0.0059642872 0.00010028521 0.0001136244)
(0.0056860598 8.5214431e-05 9.7497522e-05)
(0.0054316726 7.1330407e-05 8.3272195e-05)
(0.0051997008 5.8984298e-05 7.0844883e-05)
(0.0049887459 4.8311753e-05 6.0073374e-05)
(0.0047973943 3.9291581e-05 5.0798891e-05)
(0.0046242055 3.1804353e-05 4.2859902e-05)
(0.0044677269 2.5679086e-05 3.6099807e-05)
(0.0043265179 2.0725785e-05 3.0371292e-05)
(0.0041991724 1.6756343e-05 2.5538702e-05)
(0.004084339 1.3596837e-05 2.1479083e-05)
(0.0039807371 1.1093753e-05 1.8082323e-05)
(0.0038871692 9.1161633e-06 1.525079e-05)
(0.0038025288 7.555379e-06 1.2898647e-05)
(0.003725804 6.3231338e-06 1.0950986e-05)
(0.0036560786 5.348818e-06 9.3426781e-06)
(0.0035925304 4.5751811e-06 8.016613e-06)
(0.0035344253 3.9621002e-06 6.9239486e-06)
(0.0034811131 3.4726274e-06 6.0250738e-06)
(0.0034320221 3.0815202e-06 5.2862632e-06)
(0.0033866501 2.770276e-06 4.6792098e-06)
(0.0033445586 2.5236729e-06 4.1805206e-06)
(0.0033053662 2.3295855e-06 3.7707533e-06)
(0.0032687419 2.1784961e-06 3.4337447e-06)
(0.0032343982 2.0629043e-06 3.1561105e-06)
(0.0032020863 1.9768082e-06 2.9267969e-06)
(0.0031715907 1.9153163e-06 2.736704e-06)
(0.0031427248 1.8743795e-06 2.5783558e-06)
(0.0031153267 1.8506044e-06 2.4456285e-06)
(0.0030892563 1.8411238e-06 2.3335219e-06)
(0.0030643915 1.8434974e-06 2.2379674e-06)
(0.003040626 1.8556437e-06 2.1556632e-06)
(0.0030178671 1.8757796e-06 2.0839516e-06)
(0.0029960335 1.9023798e-06 2.0206944e-06)
(0.0029750538 1.9341344e-06 1.9641815e-06)
(0.0029548649 1.9699143e-06 1.9130522e-06)
(0.0029354109 2.0087624e-06 1.8662277e-06)
(0.0029166424 2.0498565e-06 1.8228526e-06)
(0.0028985148 2.0925093e-06 1.7822568e-06)
(0.0028809886 2.1361368e-06 1.7439149e-06)
(0.0028640277 2.1802707e-06 1.7074103e-06)
(0.0028476 2.2245512e-06 1.672414e-06)
(0.0028316758 2.2687606e-06 1.638656e-06)
(0.0028162284 2.312894e-06 1.6058729e-06)
(0.0028012324 2.3570783e-06 1.573824e-06)
(0.0027866658 2.3978709e-06 1.5431898e-06)
(0.0027725089 2.4362352e-06 1.5136872e-06)
(0.0027587418 2.4734404e-06 1.4848886e-06)
(0.002745346 2.5095348e-06 1.4567008e-06)
(0.002732305 2.5443509e-06 1.4291163e-06)
(0.0027196032 2.5777718e-06 1.4021124e-06)
(0.0027072261 2.6097256e-06 1.3756646e-06)
(0.0026951602 2.6401666e-06 1.3497564e-06)
(0.0026833928 2.6690896e-06 1.3243752e-06)
(0.0026719116 2.6965045e-06 1.2995091e-06)
(0.0026607054 2.7223737e-06 1.2751522e-06)
(0.0026497635 2.7463549e-06 1.2513123e-06)
(0.002639076 2.7689081e-06 1.2279774e-06)
(0.0026286333 2.7901458e-06 1.2051281e-06)
(0.0026184262 2.8099939e-06 1.1827605e-06)
(0.0026084461 2.8284335e-06 1.1608707e-06)
(0.0025986849 2.8454944e-06 1.1394482e-06)
(0.0025891348 2.8612193e-06 1.1184897e-06)
(0.0025797885 2.8756513e-06 1.097986e-06)
(0.002570639 2.8888311e-06 1.0779285e-06)
(0.0025616795 2.9008075e-06 1.0583082e-06)
(0.0025529038 2.9116208e-06 1.0391192e-06)
(0.0025443058 2.9213157e-06 1.0203489e-06)
(0.0025358796 2.9299307e-06 1.0019899e-06)
(0.0025276198 2.9375063e-06 9.8403251e-07)
(0.002519521 2.9440791e-06 9.6646577e-07)
(0.0025115783 2.9496803e-06 9.4927904e-07)
(0.0025037869 2.9543372e-06 9.3246134e-07)
(0.0024961421 2.9580671e-06 9.1599996e-07)
(0.0024886396 2.9608807e-06 8.9987994e-07)
(0.0024812752 2.9627726e-06 8.8408567e-07)
(0.002474045 2.9637215e-06 8.6859411e-07)
(0.0024669452 2.9636868e-06 8.5338235e-07)
(0.0024599723 2.9626125e-06 8.3841414e-07)
(0.0024531231 2.9604299e-06 8.2364266e-07)
(0.0024463945 2.9570967e-06 8.0900264e-07)
(0.0024397839 2.9526517e-06 7.9439822e-07)
(0.0024332894 2.9473512e-06 7.7969362e-07)
(0.0024269099 2.9419139e-06 7.6470927e-07)
(0.0024206457 2.9379218e-06 7.4925978e-07)
(0.0024144993 2.9384189e-06 7.3336507e-07)
(0.0024084767 2.9484958e-06 7.1826476e-07)
(0.0024025877 2.9751252e-06 7.1113268e-07)
(0.002396846 3.0234609e-06 7.4331295e-07)
(0.0023911946 3.0808306e-06 8.3046585e-07)
(0.0023803644 3.0574254e-06 2.2999435e-06)
(0.0094810492 4.4090136e-05 0.00022308885)
(0.0091422796 7.9975484e-05 0.00026874495)
(0.0086839084 0.00010160921 0.00025628771)
(0.0081880903 0.00011101591 0.00023793456)
(0.0077246858 0.00011275118 0.00021798622)
(0.0073029895 0.00010953687 0.00019578738)
(0.0069155191 0.00010266029 0.00017296032)
(0.0065579578 9.3267236e-05 0.0001510852)
(0.006229001 8.2539593e-05 0.00013089045)
(0.005927585 7.1446833e-05 0.00011261412)
(0.0056522063 6.067336e-05 9.6309239e-05)
(0.0054012005 5.0670807e-05 8.1936268e-05)
(0.0051729477 4.1706608e-05 6.9390832e-05)
(0.004965887 3.3898115e-05 5.8529098e-05)
(0.0047784814 2.7249953e-05 4.918988e-05)
(0.0046092054 2.1693072e-05 4.1208774e-05)
(0.0044565535 1.7117437e-05 3.4426144e-05)
(0.0043190553 1.3395518e-05 2.8691658e-05)
(0.0041952917 1.0397811e-05 2.3866805e-05)
(0.0040839086 8.002331e-06 1.9826012e-05)
(0.0039836292 6.09977e-06 1.6456861e-05)
(0.0038932634 4.5956617e-06 1.3659715e-05)
(0.0038117126 3.410673e-06 1.1347012e-05)
(0.0037379734 2.4799294e-06 9.4422915e-06)
(0.0036711359 1.7515114e-06 7.8790896e-06)
(0.0036103859 1.1749049e-06 6.6010329e-06)
(0.0035549935 7.2234189e-07 5.5561201e-06)
(0.0035043108 3.7342555e-07 4.7060704e-06)
(0.0034577717 1.056972e-07 4.0163446e-06)
(0.0034148763 -9.9089932e-08 3.4574128e-06)
(0.0033751872 -2.5333534e-07 3.0054952e-06)
(0.0033383243 -3.6640018e-07 2.6409748e-06)
(0.0033039576 -4.4578088e-07 2.347572e-06)
(0.0032718009 -4.9748498e-07 2.1118255e-06)
(0.0032416065 -5.2634771e-07 1.9226422e-06)
(0.0032131599 -5.3631025e-07 1.7709154e-06)
(0.0031862758 -5.3064116e-07 1.649203e-06)
(0.0031607936 -5.1206357e-07 1.5514416e-06)
(0.0031365743 -4.8287236e-07 1.4727105e-06)
(0.0031134976 -4.4500705e-07 1.4090337e-06)
(0.0030914586 -4.0011237e-07 1.3572051e-06)
(0.0030703663 -3.4957856e-07 1.3146559e-06)
(0.0030501409 -2.945947e-07 1.2793311e-06)
(0.0030307129 -2.361694e-07 1.2495913e-06)
(0.0030120207 -1.7516578e-07 1.2241402e-06)
(0.0029940105 -1.1232129e-07 1.2019528e-06)
(0.0029766343 -4.8268758e-08 1.1822236e-06)
(0.0029598495 1.6448074e-08 1.1643213e-06)
(0.0029436181 8.1355206e-08 1.1477522e-06)
(0.002927906 1.4602404e-07 1.132124e-06)
(0.0029126825 2.1005789e-07 1.1171184e-06)
(0.0028979201 2.7304863e-07 1.1024398e-06)
(0.0028835935 3.3454259e-07 1.0876602e-06)
(0.0028696773 3.9432333e-07 1.072203e-06)
(0.0028561514 4.5704896e-07 1.0590097e-06)
(0.0028429997 5.20601e-07 1.047258e-06)
(0.0028302035 5.8225448e-07 1.0356084e-06)
(0.0028177449 6.4163944e-07 1.0238013e-06)
(0.0028056084 6.9901911e-07 1.0118741e-06)
(0.0027937799 7.5456036e-07 9.9986824e-07)
(0.0027822461 8.0835098e-07 9.8780954e-07)
(0.0027709946 8.6046926e-07 9.7571843e-07)
(0.0027600137 9.1102617e-07 9.6360306e-07)
(0.0027492926 9.6019639e-07 9.5144763e-07)
(0.0027388207 1.0080071e-06 9.3926668e-07)
(0.0027285887 1.0528503e-06 9.2746569e-07)
(0.0027185878 1.0958658e-06 9.1582894e-07)
(0.0027088089 1.1375002e-06 9.0425341e-07)
(0.0026992438 1.1777665e-06 8.9275914e-07)
(0.0026898847 1.2166574e-06 8.8136604e-07)
(0.0026807244 1.2541694e-06 8.7007893e-07)
(0.0026717559 1.2903148e-06 8.5890696e-07)
(0.0026629726 1.3251084e-06 8.4785242e-07)
(0.0026543682 1.3585742e-06 8.3692287e-07)
(0.0026459367 1.3907423e-06 8.2612136e-07)
(0.0026376723 1.421636e-06 8.1545318e-07)
(0.0026295698 1.4512913e-06 8.0491943e-07)
(0.0026216238 1.4797321e-06 7.9452295e-07)
(0.0026138294 1.5069912e-06 7.8426379e-07)
(0.002606182 1.5330929e-06 7.7414054e-07)
(0.0025986769 1.5580624e-06 7.641524e-07)
(0.0025913099 1.5819198e-06 7.5429524e-07)
(0.0025840769 1.6046803e-06 7.4456477e-07)
(0.0025769739 1.6263495e-06 7.349527e-07)