/*--------------------------------*- C++ -*----------------------------------*\
  =========                 |
  \\      /  F ield         | OpenFOAM: The Open Source CFD Toolbox
   \\    /   O peration     | Website:  https://openfoam.org
    \\  /    A nd           | Version:  7
     \\/     M anipulation  |
\*---------------------------------------------------------------------------*/
FoamFile
{
    version     2.0;
    format      ascii;
    class       surfaceScalarField;
    location    "3350/water";
    object      phi;
}
// * * * * * * * * * * * * * * * * * * * * * * * * * * * * * * * * * * * * * //

dimensions      [1 0 -1 0 0 0 0];

internalField   nonuniform List<scalar> 
156660
(
9.9057239e-05
6.0010402e-06
6.0528092e-06
8.6847498e-05
6.0555113e-06
6.1542307e-06
7.5687891e-05
5.5111362e-06
5.6484701e-06
6.5441704e-05
5.0404181e-06
5.2057689e-06
5.6267661e-05
4.4956436e-06
4.6783992e-06
4.8318019e-05
3.8797648e-06
4.0698777e-06
4.1624776e-05
3.2524449e-06
3.4407982e-06
3.6124897e-05
2.660462e-06
2.839417e-06
3.1692235e-05
2.1345127e-06
2.2981489e-06
2.8162841e-05
1.6926975e-06
1.8366964e-06
2.5361437e-05
1.3399933e-06
1.4614113e-06
2.3124664e-05
1.0698477e-06
1.1669256e-06
2.1315127e-05
8.6875419e-07
9.4078226e-07
1.9825714e-05
7.2110061e-07
7.6831274e-07
1.8577278e-05
6.1248246e-07
6.3595309e-07
1.7513255e-05
5.3125219e-07
5.3277149e-07
1.6593744e-05
4.6879726e-07
4.5071349e-07
1.5790433e-05
4.1913719e-07
3.8417387e-07
1.5082784e-05
3.7829071e-07
3.2935852e-07
1.4455417e-05
3.4367128e-07
2.8369564e-07
1.3896409e-05
3.1361409e-07
2.4539334e-07
1.339622e-05
2.8704451e-07
2.1314452e-07
1.2947015e-05
2.6326032e-07
1.859451e-07
1.2542237e-05
2.4179364e-07
1.6298462e-07
1.2176318e-05
2.2232208e-07
1.435969e-07
1.1844484e-05
2.0461481e-07
1.2721881e-07
1.1542609e-05
1.8849495e-07
1.1337973e-07
1.1267116e-05
1.7381573e-07
1.0167791e-07
1.1014892e-05
1.604627e-07
9.1760825e-08
1.0783252e-05
1.4833968e-07
8.3300619e-08
1.0569851e-05
1.3734902e-07
7.6052161e-08
1.0372614e-05
1.2738862e-07
6.9848325e-08
1.0189731e-05
1.183681e-07
6.4514838e-08
1.001963e-05
1.102045e-07
5.9896621e-08
9.8609388e-06
1.028192e-07
5.5871652e-08
9.7124595e-06
9.613799e-08
5.2341373e-08
9.5731439e-06
9.0091164e-08
4.9224319e-08
9.4420759e-06
8.461448e-08
4.6453577e-08
9.3184531e-06
7.9648674e-08
4.3974106e-08
9.2015723e-06
7.5139725e-08
4.1741036e-08
9.0908166e-06
7.1038169e-08
3.9717537e-08
8.9856431e-06
6.730115e-08
3.7872295e-08
8.8855708e-06
6.3894268e-08
3.6178163e-08
8.7901757e-06
6.0780093e-08
3.4614919e-08
8.6990829e-06
5.792615e-08
3.3166619e-08
8.611959e-06
5.5303688e-08
3.1820105e-08
8.5285072e-06
5.2887422e-08
3.0564391e-08
8.4484618e-06
5.0655075e-08
2.9390288e-08
8.3715848e-06
4.8587056e-08
2.8290006e-08
8.2976614e-06
4.6666163e-08
2.7257201e-08
8.2264975e-06
4.4877463e-08
2.6286424e-08
8.1579202e-06
4.3208783e-08
2.5368546e-08
8.0917731e-06
4.1649058e-08
2.4498044e-08
8.0279108e-06
4.0187002e-08
2.3675366e-08
7.9662005e-06
3.8812674e-08
2.2897533e-08
7.9065219e-06
3.7518397e-08
2.2160215e-08
7.8487639e-06
3.6297859e-08
2.146015e-08
7.7928241e-06
3.5145139e-08
2.0794597e-08
7.7386083e-06
3.4054687e-08
2.0161147e-08
7.6860293e-06
3.3021336e-08
1.9557679e-08
7.6350062e-06
3.2040788e-08
1.8982265e-08
7.5854641e-06
3.1109057e-08
1.843307e-08
7.537333e-06
3.0222615e-08
1.7908484e-08
7.4905478e-06
2.9378223e-08
1.7406986e-08
7.4450476e-06
2.8572972e-08
1.692718e-08
7.4007755e-06
2.7804211e-08
1.6467794e-08
7.3576783e-06
2.7069592e-08
1.6027631e-08
7.3157056e-06
2.6367045e-08
1.5605629e-08
7.2748103e-06
2.5694642e-08
1.5200673e-08
7.2349479e-06
2.5050558e-08
1.4811838e-08
7.1960766e-06
2.4433089e-08
1.4438206e-08
7.158157e-06
2.3840681e-08
1.4078971e-08
7.1211518e-06
2.3271899e-08
1.3733272e-08
7.0850258e-06
2.2725523e-08
1.3400542e-08
7.0497456e-06
2.2200219e-08
1.3079948e-08
7.0152798e-06
2.1694912e-08
1.27709e-08
6.9815985e-06
2.1208572e-08
1.2472763e-08
6.9486733e-06
2.074024e-08
1.218494e-08
6.9164775e-06
2.0288979e-08
1.1906817e-08
6.8849857e-06
1.9853967e-08
1.1637837e-08
6.8541739e-06
1.9434366e-08
1.1377453e-08
6.8240193e-06
1.9029438e-08
1.1125099e-08
6.7945006e-06
1.86385e-08
1.0880256e-08
6.7655975e-06
1.8260753e-08
1.0642334e-08
6.7372912e-06
1.7895555e-08
1.0410774e-08
6.709564e-06
1.7542081e-08
1.0185091e-08
6.6823995e-06
1.7199617e-08
9.9648955e-09
6.6557824e-06
1.6867276e-08
9.7498465e-09
6.6296983e-06
1.6544138e-08
9.5399794e-09
6.6041331e-06
1.6229288e-08
9.3359977e-09
6.5790714e-06
1.5921988e-08
9.1396554e-09
6.554494e-06
1.562234e-08
8.9550962e-09
6.5303708e-06
1.5332591e-08
8.7906593e-09
6.5066467e-06
1.5060453e-08
8.6636351e-09
6.4832094e-06
1.482779e-08
8.6095234e-09
6.4598103e-06
1.4693101e-08
8.7060454e-09
6.4358387e-06
1.482642e-08
9.1451345e-09
6.4096302e-06
1.5741768e-08
1.0466735e-08
6.3782854e-06
1.8026547e-08
1.3318239e-08
3.2300231e-08
2.7923558e-08
0.00010646494
4.1872385e-06
6.4599816e-06
0.0001002019
5.695418e-06
6.6231353e-06
9.3659588e-05
5.7790389e-06
6.2744098e-06
8.7011589e-05
5.6514782e-06
6.0369386e-06
8.0422927e-05
5.366912e-06
5.7173941e-06
7.4094022e-05
4.9022832e-06
5.3063863e-06
6.8167026e-05
4.3278136e-06
4.8516273e-06
6.2722565e-05
3.717891e-06
4.387032e-06
5.7799049e-05
3.1243144e-06
3.9337144e-06
5.3403345e-05
2.5820689e-06
3.5063329e-06
4.9517402e-05
2.1121062e-06
3.1138299e-06
4.6105482e-05
1.7220197e-06
2.7597474e-06
4.3121558e-05
1.4089355e-06
2.4437429e-06
4.0515558e-05
1.1637552e-06
2.163346e-06
3.8237948e-05
9.7485852e-07
1.9152336e-06
3.6242683e-05
8.3055978e-07
1.6959573e-06
3.4488759e-05
7.2043696e-07
1.5022849e-06
3.2940716e-05
6.3586296e-07
1.3313172e-06
3.1568463e-05
5.7005004e-07
1.1804931e-06
3.0346733e-05
5.1784896e-07
1.0475522e-06
2.9254398e-05
4.7545955e-07
9.3049033e-07
2.8273782e-05
4.4013961e-07
8.2752022e-07
2.7390054e-05
4.0994897e-07
7.3704008e-07
2.6590699e-05
3.835396e-07
6.5760857e-07
2.5865102e-05
3.5998892e-07
5.8793071e-07
2.5204197e-05
3.3867635e-07
5.2684263e-07
2.4600205e-05
3.1918359e-07
4.7330348e-07
2.4046429e-05
3.0120192e-07
4.2639016e-07
2.3537073e-05
2.8455207e-07
3.8526716e-07
2.3067119e-05
2.6911099e-07
3.4918239e-07
2.2632208e-05
2.5478163e-07
3.1747788e-07
2.2228528e-05
2.414738e-07
2.8959532e-07
2.1852744e-05
2.2911074e-07
2.6504125e-07
2.1501947e-05
2.1762896e-07
2.4337257e-07
2.1173591e-05
2.0696952e-07
2.2420572e-07
2.0865444e-05
1.9707568e-07
2.0720865e-07
2.0575549e-05
1.8789252e-07
1.9209398e-07
2.0302183e-05
1.7936722e-07
1.7861343e-07
2.0043829e-05
1.7144906e-07
1.6655321e-07
1.979915e-05
1.6408983e-07
1.5572939e-07
1.956696e-05
1.5724384e-07
1.4598403e-07
1.934621e-05
1.5086896e-07
1.3718219e-07
1.9135969e-05
1.4492652e-07
1.2920883e-07
1.8935407e-05
1.3937906e-07
1.2196305e-07
1.8743783e-05
1.3419229e-07
1.153576e-07
1.8560435e-05
1.2933507e-07
1.0931726e-07
1.8384766e-05
1.2477908e-07
1.0377712e-07
1.8216241e-05
1.2049849e-07
9.8681284e-08
1.8054377e-05
1.1647013e-07
9.3981306e-08
1.7898734e-05
1.1267293e-07
8.9635415e-08
1.7748917e-05
1.090882e-07
8.5607023e-08
1.7604563e-05
1.0570005e-07
8.186239e-08
1.7465345e-05
1.024934e-07
7.8373256e-08
1.7330962e-05
9.9453005e-08
7.5116968e-08
1.7201138e-05
9.6564384e-08
7.2072732e-08
1.7075619e-05
9.3816639e-08
6.9221137e-08
1.695417e-05
9.1201121e-08
6.6545106e-08
1.6836577e-05
8.8709109e-08
6.402954e-08
1.6722638e-05
8.6331944e-08
6.1661046e-08
1.661217e-05
8.4061776e-08
5.9427698e-08
1.6505001e-05
8.1891537e-08
5.7318816e-08
1.640097e-05
7.9814924e-08
5.5324865e-08
1.6299929e-05
7.7826156e-08
5.3437118e-08
1.620174e-05
7.5919832e-08
5.1647914e-08
1.6106272e-05
7.4091003e-08
4.9950116e-08
1.6013404e-05
7.2334989e-08
4.8337383e-08
1.5923022e-05
7.0647713e-08
4.6803857e-08
1.5835019e-05
6.9025742e-08
4.5344272e-08
1.5749294e-05
6.7465568e-08
4.3953716e-08
1.5665753e-05
6.5963776e-08
4.2627686e-08
1.5584307e-05
6.4517325e-08
4.1362166e-08
1.5504871e-05
6.312339e-08
4.0153381e-08
1.5427365e-05
6.1779303e-08
3.8997796e-08
1.5351716e-05
6.048256e-08
3.7892285e-08
1.5277852e-05
5.9230807e-08
3.6833848e-08
1.5205705e-05
5.8022011e-08
3.5819753e-08
1.5135212e-05
5.6853994e-08
3.4847396e-08
1.5066313e-05
5.5725018e-08
3.391436e-08
1.499895e-05
5.463312e-08
3.3018418e-08
1.493307e-05
5.3576714e-08
3.215744e-08
1.4868621e-05
5.2554181e-08
3.1329429e-08
1.4805554e-05
5.1563946e-08
3.0532414e-08
1.4743823e-05
5.0604475e-08
2.9764671e-08
1.4683386e-05
4.9674274e-08
2.9024403e-08
1.4624199e-05
4.87718e-08
2.8309888e-08
1.4566226e-05
4.7895473e-08
2.7619608e-08
1.4509431e-05
4.7043506e-08
2.695199e-08
1.4453778e-05
4.6214102e-08
2.6305783e-08
1.4399237e-05
4.5405403e-08
2.5679872e-08
1.4345777e-05
4.4615691e-08
2.5073761e-08
1.4293367e-05
4.3844239e-08
2.4487701e-08
1.4241972e-05
4.3092851e-08
2.3923738e-08
1.4191548e-05
4.2369893e-08
2.3387137e-08
1.4142019e-05
4.1699306e-08
2.2889648e-08
1.4093249e-05
4.1141648e-08
2.2456634e-08
1.4044951e-05
4.0844636e-08
2.2146573e-08
1.3996485e-05
4.1169188e-08
2.2123042e-08
1.3946229e-05
4.3012278e-08
2.2985401e-08
1.389015e-05
4.8540256e-08
2.5565798e-08
6.3281547e-08
5.0000853e-08
0.00010603565
2.7876425e-06
6.4750379e-06
0.00010074799
4.4145413e-06
6.5685292e-06
9.5493515e-05
4.8594028e-06
6.1741158e-06
9.0256432e-05
4.930369e-06
5.9581921e-06
8.5101366e-05
4.8311767e-06
5.6908012e-06
8.0102875e-05
4.5561761e-06
5.3445981e-06
7.5322251e-05
4.1469521e-06
4.9614853e-06
7.0803266e-05
3.6678925e-06
4.5689837e-06
6.6576264e-05
3.1701903e-06
4.1811255e-06
6.2660725e-05
2.6900109e-06
3.8075976e-06
5.9065443e-05
2.2519319e-06
3.4554566e-06
5.5788936e-05
1.8697304e-06
3.1287958e-06
5.2820978e-05
1.5477473e-06
2.8291458e-06
5.014479e-05
1.2836302e-06
2.5563139e-06
4.7739304e-05
1.07123e-06
2.3091141e-06
4.5581183e-05
9.0281506e-07
2.0858661e-06
4.3646423e-05
7.7048781e-07
1.884709e-06
4.1911533e-05
6.6697374e-07
1.7037793e-06
4.0354306e-05
5.85982e-07
1.541295e-06
3.8954268e-05
5.2230224e-07
1.3955849e-06
3.769288e-05
4.7175609e-07
1.265091e-06
3.6553576e-05
4.3107986e-07
1.1483634e-06
3.552169e-05
3.9778207e-07
1.0440533e-06
3.4584322e-05
3.6999885e-07
9.5090831e-07
3.3730181e-05
3.4635989e-07
8.6777018e-07
3.2949411e-05
3.258776e-07
7.9356872e-07
3.2233419e-05
3.078405e-07
7.2733487e-07
3.157471e-05
2.9172983e-07
6.6818103e-07
3.0966769e-05
2.7719268e-07
6.1530128e-07
3.0403928e-05
2.6398102e-07
5.6797021e-07
2.9881259e-05
2.5190847e-07
5.2554317e-07
2.9394455e-05
2.408271e-07
4.8745e-07
2.8939761e-05
2.3062161e-07
4.5318327e-07
2.8513895e-05
2.2120154e-07
4.2229385e-07
2.8113985e-05
2.1249195e-07
3.9438676e-07
2.7737518e-05
2.0442798e-07
3.6911491e-07
2.7382285e-05
1.9695194e-07
3.4617385e-07
2.7046344e-05
1.9001178e-07
3.2529677e-07
2.6727982e-05
1.8355995e-07
3.0625043e-07
2.6425689e-05
1.7755275e-07
2.8883085e-07
2.6138123e-05
1.7195004e-07
2.7285984e-07
2.5864094e-05
1.6671518e-07
2.5818182e-07
2.5602546e-05
1.6181453e-07
2.446609e-07
2.535253e-05
1.5721705e-07
2.3217762e-07
2.51132e-05
1.5289443e-07
2.2062726e-07
2.4883797e-05
1.4882094e-07
2.0991773e-07
2.4663634e-05
1.4497365e-07
1.9996809e-07
2.4452094e-05
1.4133185e-07
1.9070706e-07
2.4248615e-05
1.3787695e-07
1.8207152e-07
2.405269e-05
1.3459265e-07
1.7400572e-07
2.3863854e-05
1.3146459e-07
1.6645991e-07
2.3681684e-05
1.2848058e-07
1.5938926e-07
2.3505794e-05
1.2562921e-07
1.5275412e-07
2.3335829e-05
1.2289869e-07
1.465197e-07
2.3171462e-05
1.2027637e-07
1.406546e-07
2.3012394e-05
1.1775475e-07
1.3513019e-07
2.2858345e-05
1.1532973e-07
1.2992041e-07
2.2709057e-05
1.1299537e-07
1.2500172e-07
2.2564291e-05
1.107452e-07
1.2035288e-07
2.2423824e-05
1.0857348e-07
1.1595462e-07
2.2287451e-05
1.064755e-07
1.1178924e-07
2.2154978e-05
1.0444702e-07
1.0784081e-07
2.2026226e-05
1.0248418e-07
1.040946e-07
2.1901025e-05
1.0058349e-07
1.0053715e-07
2.1779218e-05
9.8741529e-08
9.715616e-08
2.1660658e-05
9.6954902e-08
9.3940288e-08
2.1545205e-05
9.5221269e-08
9.0879056e-08
2.1432729e-05
9.3538819e-08
8.7962802e-08
2.1323107e-05
9.1905299e-08
8.5182579e-08
2.1216222e-05
9.0318509e-08
8.2530169e-08
2.1111965e-05
8.8776387e-08
7.9997894e-08
2.1010233e-05
8.7277106e-08
7.7578642e-08
2.0910927e-05
8.5818963e-08
7.5265886e-08
2.0813956e-05
8.4400306e-08
7.3053447e-08
2.0719232e-05
8.3019696e-08
7.0935644e-08
2.0626671e-05
8.1675657e-08
6.8907208e-08
2.0536195e-05
8.0366833e-08
6.6963119e-08
2.0447729e-05
7.9091954e-08
6.5098749e-08
2.0361203e-05
7.7849823e-08
6.3309765e-08
2.0276548e-05
7.6639227e-08
6.1592047e-08
2.0193702e-05
7.5459016e-08
5.9941717e-08
2.0112602e-05
7.4307942e-08
5.8355207e-08
2.0033193e-05
7.3184928e-08
5.6829048e-08
1.9955419e-05
7.2088602e-08
5.5359975e-08
1.9879228e-05
7.1017614e-08
5.3944856e-08
1.9804572e-05
6.9970438e-08
5.2580734e-08
1.9731406e-05
6.8945258e-08
5.1264819e-08
1.9659685e-05
6.7940134e-08
4.9994406e-08
1.9589371e-05
6.6953048e-08
4.8767069e-08
1.9520423e-05
6.5982349e-08
4.7580546e-08
1.9452807e-05
6.5028034e-08
4.6433083e-08
1.9386482e-05
6.4094151e-08
4.5323743e-08
1.9321404e-05
6.3194715e-08
4.4253093e-08
1.9257511e-05
6.2366355e-08
4.3225239e-08
1.9194705e-05
6.1695144e-08
4.225315e-08
1.9132798e-05
6.137409e-08
4.1377363e-08
1.9071394e-05
6.182244e-08
4.0750662e-08
1.9009424e-05
6.392473e-08
4.10576e-08
1.8944661e-05
6.9304659e-08
4.3998821e-08
7.9170947e-08
7.4661537e-08
0.0001054937
1.9169871e-06
6.4880406e-06
0.00010005365
3.2729596e-06
6.5816334e-06
9.4926077e-05
3.8288995e-06
6.1580776e-06
8.9946373e-05
3.9838108e-06
5.9262629e-06
8.5163276e-05
3.9595077e-06
5.6547657e-06
8.0619137e-05
3.7899369e-06
5.3103784e-06
7.6329462e-05
3.5015547e-06
4.9350725e-06
7.230016e-05
3.1412013e-06
4.5559928e-06
6.8534206e-05
2.7514802e-06
4.1846641e-06
6.5032983e-05
2.3633493e-06
3.8278852e-06
6.1795789e-05
1.9984143e-06
3.490711e-06
5.8818843e-05
1.6703759e-06
3.176301e-06
5.6094717e-05
1.3858295e-06
2.886043e-06
5.3612488e-05
1.1457945e-06
2.6200649e-06
5.1358373e-05
9.4764119e-07
2.3777043e-06
4.9316593e-05
7.8676785e-07
2.1578272e-06
4.7470246e-05
6.5779548e-07
1.9590391e-06
4.5802069e-05
5.5532541e-07
1.7798252e-06
4.4295042e-05
4.7437117e-07
1.6186378e-06
4.293283e-05
4.1056667e-07
1.473948e-06
4.1700078e-05
3.6023234e-07
1.3442759e-06
4.0582591e-05
3.2035742e-07
1.2282094e-06
3.956742e-05
2.8853736e-07
1.1244154e-06
3.8642881e-05
2.6289066e-07
1.0316467e-06
3.7798527e-05
2.4196984e-07
9.4874401e-07
3.7025076e-05
2.2467702e-07
8.7465172e-07
3.6314324e-05
2.1018901e-07
8.0840411e-07
3.5659057e-05
1.9788607e-07
7.491104e-07
3.5052961e-05
1.8731583e-07
6.9597281e-07
3.4490519e-05
1.7814873e-07
6.4827381e-07
3.3966922e-05
1.7013172e-07
6.0537443e-07
3.3477973e-05
1.6306726e-07
5.6670868e-07
3.3020016e-05
1.5680297e-07
5.3177539e-07
3.2589865e-05
1.5122054e-07
5.0013242e-07
3.218474e-05
1.4622563e-07
4.7139138e-07
3.1802215e-05
1.4174074e-07
4.4521233e-07
3.1440168e-05
1.3770094e-07
4.2129808e-07
3.1096739e-05
1.3405097e-07
3.9938922e-07
3.0770297e-05
1.3074295e-07
3.7925954e-07
3.0459402e-05
1.2773516e-07
3.6071193e-07
3.0162787e-05
1.2499092e-07
3.4357477e-07
2.9879325e-05
1.2247786e-07
3.2769849e-07
2.960802e-05
1.2016737e-07
3.1295271e-07
2.934798e-05
1.1803384e-07
2.9922353e-07
2.9098408e-05
1.1605462e-07
2.8641137e-07
2.885859e-05
1.1420982e-07
2.7442905e-07
2.8627882e-05
1.1248189e-07
2.6319996e-07
2.8405701e-05
1.108556e-07
2.5265686e-07
2.819152e-05
1.0931756e-07
2.4274021e-07
2.7984859e-05
1.0785648e-07
2.3339757e-07
2.7785279e-05
1.0646283e-07
2.2458213e-07
2.7592378e-05
1.0512875e-07
2.1625214e-07
2.740579e-05
1.0384737e-07
2.0837035e-07
2.7225174e-05
1.0261121e-07
2.0090359e-07
2.705022e-05
1.0140749e-07
1.9382255e-07
2.6880641e-05
1.0023389e-07
1.8710038e-07
2.6716166e-05
9.9092394e-08
1.8071224e-07
2.6556546e-05
9.7980026e-08
1.7463558e-07
2.6401548e-05
9.689252e-08
1.6885011e-07
2.6250957e-05
9.5827091e-08
1.6333743e-07
2.610457e-05
9.4781705e-08
1.5808046e-07
2.5962199e-05
9.3754728e-08
1.5306363e-07
2.5823666e-05
9.2744876e-08
1.4827259e-07
2.5688804e-05
9.1751018e-08
1.4369413e-07
2.5557458e-05
9.0771797e-08
1.3931599e-07
2.5429481e-05
8.9805231e-08
1.3512694e-07
2.5304734e-05
8.885147e-08
1.3111645e-07
2.5183087e-05
8.7911219e-08
1.2727465e-07
2.5064416e-05
8.6983945e-08
1.2359243e-07
2.4948604e-05
8.6068906e-08
1.2006119e-07
2.4835542e-05
8.5165773e-08
1.1667303e-07
2.4725124e-05
8.4274313e-08
1.1342048e-07
2.4617252e-05
8.3394273e-08
1.1029659e-07
2.4511832e-05
8.2525487e-08
1.072948e-07
2.4408775e-05
8.1667769e-08
1.0440898e-07
2.4307997e-05
8.0820964e-08
1.0163343e-07
2.4209416e-05
7.998501e-08
9.8962635e-08
2.4112956e-05
7.9159741e-08
9.6391548e-08
2.4018546e-05
7.8345027e-08
9.3915281e-08
2.3926115e-05
7.7540701e-08
9.1529291e-08
2.3835598e-05
7.6746545e-08
8.9229246e-08
2.3746933e-05
7.5962304e-08
8.7011048e-08
2.366006e-05
7.5187626e-08
8.4870709e-08
2.3574922e-05
7.4421985e-08
8.2804555e-08
2.3491466e-05
7.3664605e-08
8.0808918e-08
2.3409641e-05
7.2914625e-08
7.888038e-08
2.33294e-05
7.2170736e-08
7.7015504e-08
2.3250698e-05
7.1431338e-08
7.5211001e-08
2.3173493e-05
7.0694905e-08
7.3463635e-08
2.3097745e-05
6.9960238e-08
7.1770089e-08
2.3023418e-05
6.9227982e-08
7.0126999e-08
2.2950477e-05
6.8503523e-08
6.8531202e-08
2.2878889e-05
6.7802887e-08
6.6979692e-08
2.2808619e-05
6.7165081e-08
6.5471571e-08
2.2739625e-05
6.6675235e-08
6.4013371e-08
2.267185e-05
6.6507079e-08
6.2642302e-08
2.2605149e-05
6.6990738e-08
6.1532381e-08
2.2538888e-05
6.8686025e-08
6.1499904e-08
2.2471121e-05
7.2226944e-08
6.4845099e-08
7.6722856e-08
9.8461298e-08
0.0001051979
1.3340885e-06
6.4961221e-06
9.9496561e-05
2.3731022e-06
6.6011947e-06
9.4262459e-05
2.9019224e-06
6.1610799e-06
8.9251186e-05
3.0856642e-06
5.9094196e-06
8.4493498e-05
3.0947347e-06
5.6224614e-06
8.0033635e-05
2.9846657e-06
5.265134e-06
7.5876907e-05
2.7790155e-06
4.8792667e-06
7.2014635e-05
2.5106844e-06
4.4927895e-06
6.8436293e-05
2.2128728e-06
4.1169489e-06
6.5131387e-05
1.9107259e-06
3.7575291e-06
6.208941e-05
1.6217321e-06
3.4186596e-06
5.9299432e-05
1.3573878e-06
3.1029661e-06
5.6749589e-05
1.1240344e-06
2.8116387e-06
5.4426788e-05
9.2377946e-07
2.5448158e-06
5.2316754e-05
7.5572797e-07
2.3019466e-06
5.0404313e-05
6.1717853e-07
2.0820302e-06
4.8673788e-05
5.045435e-07
1.8837772e-06
4.7109414e-05
4.1397183e-07
1.7057274e-06
4.5695713e-05
3.417365e-07
1.5463363e-06
4.4417792e-05
2.8445147e-07
1.4040359e-06
4.3261575e-05
2.3917115e-07
1.2772781e-06
4.2213952e-05
2.0341502e-07
1.1645652e-06
4.1262871e-05
1.7514741e-07
1.0644719e-06
4.039737e-05
1.5273232e-07
9.7565899e-07
3.9607583e-05
1.3487529e-07
8.9688146e-07
3.8884688e-05
1.205557e-07
8.270164e-07
3.8220848e-05
1.0901093e-07
7.6501856e-07
3.7609155e-05
9.9633853e-08
7.0994485e-07
3.7043542e-05
9.1977463e-08
6.6095088e-07
3.6518702e-05
8.5705834e-08
6.1728286e-07
3.6030009e-05
8.0552398e-08
5.782731e-07
3.5573433e-05
7.6308298e-08
5.4333412e-07
3.5145475e-05
7.2811271e-08
5.1195025e-07
3.4743091e-05
6.9934119e-08
4.8367021e-07
3.4363641e-05
6.7575436e-08
4.5810066e-07
3.4004828e-05
6.5652863e-08
4.3489997e-07
3.3664659e-05
6.4098572e-08
4.1377211e-07
3.3341393e-05
6.285593e-08
3.9446093e-07
3.3033513e-05
6.1877019e-08
3.7674528e-07
3.2739693e-05
6.1121099e-08
3.6043424e-07
3.2458768e-05
6.0553049e-08
3.4536328e-07
3.2189712e-05
6.0142664e-08
3.3139055e-07
3.1931622e-05
5.9863655e-08
3.1839375e-07
3.1683696e-05
5.9693127e-08
3.0626734e-07
3.1445219e-05
5.9611203e-08
2.9492012e-07
3.1215555e-05
5.9600647e-08
2.8427314e-07
3.0994132e-05
5.9646526e-08
2.7425805e-07
3.0780436e-05
5.9736165e-08
2.6481538e-07
3.0574002e-05
5.9858655e-08
2.5589333e-07
3.0374407e-05
6.000497e-08
2.4744662e-07
3.0181267e-05
6.0167656e-08
2.3943548e-07
2.9994229e-05
6.0341268e-08
2.3182485e-07
2.9812971e-05
6.0521825e-08
2.2458371e-07
2.9637193e-05
6.070453e-08
2.1768455e-07
2.9466629e-05
6.0867338e-08
2.1110455e-07
2.9301024e-05
6.1016995e-08
2.0482178e-07
2.914014e-05
6.1160873e-08
1.9881568e-07
2.8983756e-05
6.1294965e-08
1.9306836e-07
2.8831669e-05
6.1415457e-08
1.8756391e-07
2.8683688e-05
6.1520946e-08
1.8228766e-07
2.8539633e-05
6.1610548e-08
1.7722636e-07
2.8399336e-05
6.1683796e-08
1.7236785e-07
2.8262639e-05
6.1740478e-08
1.6770089e-07
2.8129394e-05
6.1780683e-08
1.6321522e-07
2.7999461e-05
6.1803904e-08
1.5890124e-07
2.7872709e-05
6.1807378e-08
1.5475037e-07
2.7749012e-05
6.1793577e-08
1.5075443e-07
2.7628253e-05
6.1764833e-08
1.4690557e-07
2.7510319e-05
6.1720989e-08
1.4319662e-07
2.7395105e-05
6.1662108e-08
1.3962084e-07
2.728251e-05
6.1588619e-08
1.3617202e-07
2.7172439e-05
6.1501075e-08
1.3284422e-07
2.7064802e-05
6.1399967e-08
1.2963192e-07
2.6959511e-05
6.128594e-08
1.2652989e-07
2.6856486e-05
6.115954e-08
1.2353325e-07
2.6755649e-05
6.102131e-08
1.206373e-07
2.6656924e-05
6.0871849e-08
1.1783767e-07
2.6560242e-05
6.0711689e-08
1.1513016e-07
2.6465535e-05
6.0541409e-08
1.1251075e-07
2.6372738e-05
6.0361352e-08
1.0997577e-07
2.6281791e-05
6.017197e-08
1.0752157e-07
2.6192636e-05
5.9973557e-08
1.051447e-07
2.6105215e-05
5.9766336e-08
1.0284183e-07
2.6019477e-05
5.9550266e-08
1.0060973e-07
2.5935371e-05
5.9325145e-08
9.8445269e-08
2.585285e-05
5.9090487e-08
9.6345384e-08
2.5771868e-05
5.8845484e-08
9.4306925e-08
2.5692384e-05
5.8588988e-08
9.2326725e-08
2.5614357e-05
5.8319799e-08
9.0401416e-08
2.5537753e-05
5.8037051e-08
8.8527341e-08
2.5462539e-05
5.7741619e-08
8.6700215e-08
2.5388689e-05
5.7438365e-08
8.4915159e-08
2.5316184e-05
5.7141425e-08
8.3166634e-08
2.5245017e-05
5.6882574e-08
8.1449639e-08
2.51752e-05
5.6726047e-08
7.9765818e-08
2.510677e-05
5.6787909e-08
7.8149177e-08
2.5039729e-05
5.7251595e-08
7.6780992e-08
2.4973573e-05
5.8330907e-08
7.6510222e-08
2.4906079e-05
5.9989486e-08
7.973218e-08
6.0714997e-08
1.1287821e-07
0.00010503672
9.0789373e-07
6.5005614e-06
9.9140653e-05
1.6524914e-06
6.6166802e-06
9.3788329e-05
2.0825242e-06
6.1717217e-06
8.8708526e-05
2.2549374e-06
5.91053e-06
8.3909682e-05
2.278404e-06
5.6151748e-06
7.9437109e-05
2.2074821e-06
5.2497564e-06
7.5296201e-05
2.0645348e-06
4.8553893e-06
7.1474034e-05
1.8722542e-06
4.4605969e-06
6.7955013e-05
1.6547667e-06
4.0771269e-06
6.4723621e-05
1.4313505e-06
3.7107669e-06
6.1764423e-05
1.2154297e-06
3.3655007e-06
5.9062056e-05
1.015864e-06
3.0438911e-06
5.6601108e-05
8.3782745e-07
2.7471548e-06
5.4365944e-05
6.8344648e-07
2.475497e-06
5.2340648e-05
5.5258527e-07
2.2284383e-06
5.0509125e-05
4.4366545e-07
2.0050361e-06
4.8855299e-05
3.5433458e-07
1.8040352e-06
4.7363353e-05
2.819359e-07
1.6239821e-06
4.6017963e-05
2.2381347e-07
1.4633127e-06
4.4804502e-05
1.7749384e-07
1.3204181e-06
4.3709199e-05
1.4078093e-07
1.1936935e-06
4.2719248e-05
1.1179159e-07
1.081575e-06
4.1822875e-05
8.8954566e-08
9.8256584e-07
4.1009364e-05
7.0987995e-08
8.9525473e-07
4.0269054e-05
5.6861845e-08
8.1832384e-07
3.9593306e-05
4.5719129e-08
7.5058477e-07
3.8974405e-05
3.6977853e-08
6.9093438e-07
3.8405585e-05
3.0067398e-08
6.3838632e-07
3.7880869e-05
2.4650853e-08
5.9204241e-07
3.7395029e-05
2.0439996e-08
5.5110606e-07
3.6943514e-05
1.7190303e-08
5.1487716e-07
3.6522366e-05
1.4716748e-08
4.8273958e-07
3.6128148e-05
1.2874791e-08
4.541539e-07
3.5757883e-05
1.1549909e-08
4.2864942e-07
3.5408991e-05
1.0650748e-08
4.0581707e-07
3.5079238e-05
1.0103586e-08
3.8530229e-07
3.4766689e-05
9.84825e-09
3.6679879e-07
3.4469668e-05
9.8350947e-09
3.5004232e-07
3.4186716e-05
1.0022931e-08
3.3480552e-07
3.3916567e-05
1.037703e-08
3.2089287e-07
3.3658116e-05
1.0868095e-08
3.0813662e-07
3.3410395e-05
1.1470986e-08
2.9639284e-07
3.3172556e-05
1.2164251e-08
2.8553827e-07
3.2943852e-05
1.2929286e-08
2.7546716e-07
3.2723625e-05
1.3750139e-08
2.6608892e-07
3.2511286e-05
1.4613071e-08
2.5732573e-07
3.2306316e-05
1.5506247e-08
2.4911064e-07
3.2108246e-05
1.6419582e-08
2.4138622e-07
3.1916658e-05
1.7344628e-08
2.3410268e-07
3.1731171e-05
1.8274306e-08
2.2721711e-07
3.1551444e-05
1.9203185e-08
2.2069215e-07
3.1377162e-05
2.0127736e-08
2.1449505e-07
3.1208038e-05
2.1048667e-08
2.0859679e-07
3.10438e-05
2.1972773e-08
2.0297054e-07
3.0884232e-05
2.2827904e-08
1.9760735e-07
3.0729103e-05
2.366301e-08
1.9248229e-07
3.05782e-05
2.449002e-08
1.8757383e-07
3.0431331e-05
2.5296293e-08
1.8286761e-07
3.0288318e-05
2.6077982e-08
1.7835077e-07
3.0148994e-05
2.6834332e-08
1.7401108e-07
3.0013202e-05
2.7564677e-08
1.6983755e-07
2.9880797e-05
2.8268957e-08
1.6582022e-07
2.975164e-05
2.8947426e-08
1.6195012e-07
2.96256e-05
2.9600776e-08
1.5821898e-07
2.9502557e-05
3.0228583e-08
1.5461921e-07
2.9382396e-05
3.0823586e-08
1.5114464e-07
2.9265007e-05
3.139312e-08
1.4778876e-07
2.9150287e-05
3.1939572e-08
1.4454536e-07
2.9038137e-05
3.2461884e-08
1.4140899e-07
2.8928465e-05
3.2960094e-08
1.3837461e-07
2.8821181e-05
3.3434736e-08
1.3543751e-07
2.8716203e-05
3.3886356e-08
1.325933e-07
2.8613449e-05
3.4315564e-08
1.2983787e-07
2.8512845e-05
3.4722881e-08
1.2716735e-07
2.8414317e-05
3.5108983e-08
1.2457817e-07
2.8317797e-05
3.5474449e-08
1.220668e-07
2.8223219e-05
3.5819878e-08
1.1963009e-07
2.813052e-05
3.6145903e-08
1.1726494e-07
2.803964e-05
3.6453065e-08
1.1496839e-07
2.7950522e-05
3.6741841e-08
1.1273774e-07
2.7863111e-05
3.7012784e-08
1.1057027e-07
2.7777354e-05
3.7266248e-08
1.0846345e-07
2.7693204e-05
3.7502486e-08
1.0641474e-07
2.761061e-05
3.7721611e-08
1.0442174e-07
2.752953e-05
3.7923529e-08
1.0248202e-07
2.7449919e-05
3.8107978e-08
1.0059305e-07
2.7371738e-05
3.8274261e-08
9.8752293e-08
2.7294949e-05
3.8421522e-08
9.6956914e-08
2.7219516e-05
3.8548718e-08
9.5203619e-08
2.714541e-05
3.865512e-08
9.3488623e-08
2.7072603e-05
3.8741116e-08
9.1806928e-08
2.7001079e-05
3.8810251e-08
9.0152324e-08
2.6930832e-05
3.8872132e-08
8.8516579e-08
2.6861876e-05
3.8947401e-08
8.6890543e-08
2.679426e-05
3.9073524e-08
8.5269197e-08
2.6728065e-05
3.9306955e-08
8.3675954e-08
2.6663337e-05
3.9708334e-08
8.2271174e-08
2.659956e-05
4.0272018e-08
8.1836206e-08
2.6534295e-05
4.069802e-08
8.4555765e-08
3.9620859e-08
1.1507131e-07
0.00010494757
5.6811082e-07
6.5033076e-06
9.8925416e-05
1.0462983e-06
6.6283517e-06
9.3480449e-05
1.3439844e-06
6.1835066e-06
8.8341777e-05
1.4751324e-06
5.9184763e-06
8.3502084e-05
1.4993911e-06
5.6187065e-06
7.9004057e-05
1.4572411e-06
5.2482679e-06
7.4853978e-05
1.3667382e-06
4.8478757e-06
7.1037378e-05
1.2423973e-06
4.4464569e-06
6.7536063e-05
1.0997693e-06
4.0563127e-06
6.4331998e-05
9.5192358e-07
3.6834909e-06
6.1407318e-05
8.0805756e-07
3.3320524e-06
5.8744339e-05
6.7422204e-07
3.0046209e-06
5.6325632e-05
5.5404398e-07
2.7024907e-06
5.4133973e-05
4.4916747e-07
2.4259383e-06
5.2152298e-05
3.5972399e-07
2.174536e-06
5.0363747e-05
2.8484513e-07
1.9473718e-06
4.875178e-05
2.2310004e-07
1.7432015e-06
4.7300339e-05
1.7281169e-07
1.5605647e-06
4.5994012e-05
1.3226572e-07
1.3978748e-06
4.4818177e-05
9.9840008e-08
1.2534891e-06
4.3759121e-05
7.4075627e-08
1.1257614e-06
4.2804123e-05
5.370764e-08
1.0130814e-06
4.1941503e-05
3.7671185e-08
9.1390375e-07
4.1160627e-05
2.5096461e-08
8.2676733e-07
4.0451891e-05
1.5294175e-08
7.503039e-07
3.980679e-05
7.5281585e-09
6.8329176e-07
3.9217543e-05
1.6727669e-09
6.2455205e-07
3.8677513e-05
-3.0331019e-09
5.7313082e-07
3.8180739e-05
-6.6486864e-09
5.2807356e-07
3.7722004e-05
-9.3594824e-09
4.8853451e-07
3.7296777e-05
-1.1371767e-08
4.5378928e-07
3.6901112e-05
-1.2818188e-08
4.2319917e-07
3.6531588e-05
-1.3805275e-08
3.9620481e-07
3.6185236e-05
-1.441747e-08
3.7231875e-07
3.5859491e-05
-1.4721884e-08
3.5111778e-07
3.5552132e-05
-1.4772636e-08
3.322358e-07
3.5261237e-05
-1.4613908e-08
3.1535726e-07
3.4985143e-05
-1.4282187e-08
3.0021086e-07
3.472241e-05
-1.380771e-08
2.8656375e-07
3.4471787e-05
-1.3215884e-08
2.742163e-07
3.4232185e-05
-1.2528166e-08
2.6299772e-07
3.4002657e-05
-1.1762782e-08
2.5276172e-07
3.3782373e-05
-1.0935229e-08
2.4338336e-07
3.3570606e-05
-1.0058778e-08
2.3475555e-07
3.3366714e-05
-9.1447355e-09
2.2678674e-07
3.3170131e-05
-8.2028267e-09
2.1939835e-07
3.2980356e-05
-7.2412145e-09
2.12523e-07
3.279694e-05
-6.2668332e-09
2.0610283e-07
3.2619482e-05
-5.2855309e-09
2.0008783e-07
3.2447623e-05
-4.3018193e-09
1.9443478e-07
3.228104e-05
-3.3190585e-09
1.8910587e-07
3.2119438e-05
-2.3382955e-09
1.8406736e-07
3.1962554e-05
-1.3530315e-09
1.7928646e-07
3.1810075e-05
-2.7634582e-10
1.7472764e-07
3.1661878e-05
5.8583278e-10
1.7043905e-07
3.1517732e-05
1.4356249e-09
1.6637294e-07
3.1377429e-05
2.303848e-09
1.6248961e-07
3.1240792e-05
3.1586518e-09
1.5877488e-07
3.1107656e-05
3.9970225e-09
1.5521722e-07
3.0977867e-05
4.8171838e-09
1.5180548e-07
3.0851284e-05
5.6179714e-09
1.4852968e-07
3.0727773e-05
6.3990211e-09
1.4538077e-07
3.0607209e-05
7.1609627e-09
1.4235054e-07
3.0489473e-05
7.9059635e-09
1.3943119e-07
3.037445e-05
8.6357392e-09
1.3661574e-07
3.0262049e-05
9.3206554e-09
1.3390397e-07
3.0152163e-05
9.9938264e-09
1.3128565e-07
3.0044697e-05
1.0650391e-08
1.2875512e-07
2.9939564e-05
1.1286713e-08
1.2630827e-07
2.983668e-05
1.1903226e-08
1.2394088e-07
2.9735965e-05
1.2500161e-08
1.2164887e-07
2.9637345e-05
1.307791e-08
1.1942843e-07
2.9540748e-05
1.363672e-08
1.1727617e-07
2.9446105e-05
1.4177022e-08
1.1518885e-07
2.9353352e-05
1.4699145e-08
1.1316337e-07
2.9262425e-05
1.520352e-08
1.1119701e-07
2.9173268e-05
1.5690495e-08
1.0928708e-07
2.9085822e-05
1.6160418e-08
1.0743108e-07
2.9000035e-05
1.6613567e-08
1.0562664e-07
2.8915855e-05
1.7050403e-08
1.0387154e-07
2.8833233e-05
1.7471095e-08
1.021636e-07
2.8752123e-05
1.7875944e-08
1.0050081e-07
2.8672479e-05
1.8265076e-08
9.8881139e-08
2.8594259e-05
1.8638594e-08
9.7302532e-08
2.8517424e-05
1.8996232e-08
9.5762952e-08
2.8441934e-05
1.93378e-08
9.4260347e-08
2.8367753e-05
1.9662768e-08
9.2792333e-08
2.8294848e-05
1.9970493e-08
9.1356278e-08
2.8223187e-05
2.0259988e-08
8.994885e-08
2.8152746e-05
2.0530695e-08
8.856592e-08
2.8083503e-05
2.078258e-08
8.7201784e-08
2.8015447e-05
2.1017526e-08
8.5848676e-08
2.7948582e-05
2.1240727e-08
8.4495838e-08
2.7882937e-05
2.1462697e-08
8.3129512e-08
2.7818575e-05
2.1699992e-08
8.1736548e-08
2.7755588e-05
2.1969295e-08
8.032439e-08
2.7694014e-05
2.2266178e-08
7.9016084e-08
2.7633299e-05
2.2506285e-08
7.8480644e-08
2.7571004e-05
2.2393438e-08
8.0599458e-08
2.0993068e-08
1.0779945e-07
0.00010489986
2.7443378e-07
6.5049155e-06
9.8802772e-05
5.0716636e-07
6.6362236e-06
9.329591e-05
6.5854979e-07
6.1922972e-06
8.8116302e-05
7.2902549e-07
5.9257148e-06