/*--------------------------------*- C++ -*----------------------------------*\
  =========                 |
  \\      /  F ield         | OpenFOAM: The Open Source CFD Toolbox
   \\    /   O peration     | Website:  https://openfoam.org
    \\  /    A nd           | Version:  7
     \\/     M anipulation  |
\*---------------------------------------------------------------------------*/
FoamFile
{
    version     2.0;
    format      ascii;
    class       surfaceScalarField;
    location    "3400/water";
    object      phi;
}
// * * * * * * * * * * * * * * * * * * * * * * * * * * * * * * * * * * * * * //

dimensions      [1 0 -1 0 0 0 0];

internalField   nonuniform List<scalar> 
156660
(
9.905724e-05
6.0010402e-06
6.0528092e-06
8.6847498e-05
6.0555113e-06
6.1542307e-06
7.5687891e-05
5.5111363e-06
5.6484701e-06
6.5441704e-05
5.0404181e-06
5.2057689e-06
5.6267661e-05
4.4956436e-06
4.6783992e-06
4.8318019e-05
3.8797648e-06
4.0698777e-06
4.1624776e-05
3.2524448e-06
3.4407982e-06
3.6124897e-05
2.660462e-06
2.839417e-06
3.1692235e-05
2.1345126e-06
2.2981489e-06
2.8162841e-05
1.6926975e-06
1.8366964e-06
2.5361437e-05
1.3399934e-06
1.4614113e-06
2.3124664e-05
1.0698477e-06
1.1669256e-06
2.1315127e-05
8.6875419e-07
9.4078227e-07
1.9825714e-05
7.2110064e-07
7.6831275e-07
1.8577278e-05
6.1248243e-07
6.3595307e-07
1.7513255e-05
5.3125218e-07
5.3277151e-07
1.6593744e-05
4.6879727e-07
4.507135e-07
1.5790433e-05
4.191372e-07
3.8417389e-07
1.5082784e-05
3.7829069e-07
3.293585e-07
1.4455417e-05
3.4367127e-07
2.8369563e-07
1.3896409e-05
3.1361409e-07
2.4539334e-07
1.339622e-05
2.8704448e-07
2.1314452e-07
1.2947015e-05
2.6326033e-07
1.8594513e-07
1.2542237e-05
2.4179365e-07
1.629846e-07
1.2176318e-05
2.2232206e-07
1.4359692e-07
1.1844484e-05
2.046148e-07
1.2721884e-07
1.1542609e-05
1.8849497e-07
1.1337973e-07
1.1267116e-05
1.7381574e-07
1.0167792e-07
1.1014892e-05
1.6046271e-07
9.1760854e-08
1.0783252e-05
1.4833968e-07
8.3300615e-08
1.0569851e-05
1.3734905e-07
7.6052158e-08
1.0372614e-05
1.2738865e-07
6.9848336e-08
1.0189731e-05
1.1836808e-07
6.4514863e-08
1.001963e-05
1.1020448e-07
5.989664e-08
9.8609388e-06
1.0281922e-07
5.5871667e-08
9.7124594e-06
9.6137964e-08
5.2341351e-08
9.5731439e-06
9.009118e-08
4.9224339e-08
9.4420759e-06
8.4614441e-08
4.6453602e-08
9.3184531e-06
7.9648653e-08
4.3974122e-08
9.2015723e-06
7.5139699e-08
4.1741056e-08
9.0908166e-06
7.1038158e-08
3.9717553e-08
8.9856432e-06
6.730114e-08
3.787229e-08
8.8855708e-06
6.389427e-08
3.6178169e-08
8.7901757e-06
6.0780121e-08
3.4614943e-08
8.6990829e-06
5.7926172e-08
3.3166642e-08
8.611959e-06
5.5303725e-08
3.1820124e-08
8.5285072e-06
5.2887434e-08
3.0564427e-08
8.4484618e-06
5.0655082e-08
2.9390266e-08
8.3715848e-06
4.8587041e-08
2.8290021e-08
8.2976614e-06
4.6666186e-08
2.7257234e-08
8.2264975e-06
4.4877472e-08
2.6286427e-08
8.1579202e-06
4.3208802e-08
2.5368526e-08
8.0917731e-06
4.1649056e-08
2.4498031e-08
8.0279107e-06
4.0187005e-08
2.3675344e-08
7.9662005e-06
3.881269e-08
2.2897543e-08
7.9065219e-06
3.7518433e-08
2.2160228e-08
7.8487639e-06
3.6297866e-08
2.1460141e-08
7.7928242e-06
3.5145153e-08
2.0794601e-08
7.7386083e-06
3.4054666e-08
2.0161164e-08
7.6860293e-06
3.3021327e-08
1.955769e-08
7.6350062e-06
3.204081e-08
1.8982263e-08
7.5854641e-06
3.1109089e-08
1.8433084e-08
7.537333e-06
3.0222632e-08
1.7908507e-08
7.4905477e-06
2.937824e-08
1.7406998e-08
7.4450476e-06
2.8573034e-08
1.6927192e-08
7.4007755e-06
2.7804236e-08
1.6467781e-08
7.3576783e-06
2.7069588e-08
1.6027628e-08
7.3157056e-06
2.6367021e-08
1.5605624e-08
7.2748103e-06
2.5694666e-08
1.520069e-08
7.2349479e-06
2.5050585e-08
1.4811814e-08
7.1960766e-06
2.4433122e-08
1.4438162e-08
7.158157e-06
2.3840699e-08
1.4078915e-08
7.1211518e-06
2.3271933e-08
1.373329e-08
7.0850258e-06
2.2725523e-08
1.3400503e-08
7.0497456e-06
2.2200216e-08
1.3079949e-08
7.0152798e-06
2.1694902e-08
1.2770888e-08
6.9815985e-06
2.1208588e-08
1.2472753e-08
6.9486733e-06
2.0740266e-08
1.2184917e-08
6.9164775e-06
2.0288984e-08
1.1906798e-08
6.8849857e-06
1.9853967e-08
1.163784e-08
6.8541739e-06
1.9434375e-08
1.1377457e-08
6.8240193e-06
1.9029458e-08
1.1125101e-08
6.7945006e-06
1.8638492e-08
1.0880244e-08
6.7655975e-06
1.8260755e-08
1.0642295e-08
6.7372912e-06
1.789555e-08
1.0410763e-08
6.7095641e-06
1.7542114e-08
1.0185087e-08
6.6823996e-06
1.7199614e-08
9.9648876e-09
6.6557824e-06
1.6867261e-08
9.7498309e-09
6.6296983e-06
1.654413e-08
9.5400081e-09
6.6041331e-06
1.6229264e-08
9.3359938e-09
6.5790714e-06
1.5921955e-08
9.1396968e-09
6.554494e-06
1.5622327e-08
8.955095e-09
6.5303708e-06
1.5332543e-08
8.7906647e-09
6.5066467e-06
1.5060444e-08
8.6636074e-09
6.4832094e-06
1.4827796e-08
8.6095291e-09
6.4598103e-06
1.4693072e-08
8.7060378e-09
6.4358388e-06
1.482643e-08
9.1451359e-09
6.4096303e-06
1.5741751e-08
1.0466751e-08
6.3782855e-06
1.8026558e-08
1.3318211e-08
3.2300231e-08
2.7923548e-08
0.00010646494
4.1872385e-06
6.4599816e-06
0.0001002019
5.695418e-06
6.6231353e-06
9.3659588e-05
5.7790389e-06
6.2744098e-06
8.7011589e-05
5.6514782e-06
6.0369386e-06
8.0422927e-05
5.366912e-06
5.7173941e-06
7.4094022e-05
4.9022832e-06
5.3063862e-06
6.8167026e-05
4.3278135e-06
4.8516273e-06
6.2722565e-05
3.717891e-06
4.387032e-06
5.7799049e-05
3.1243144e-06
3.9337145e-06
5.3403345e-05
2.5820689e-06
3.5063329e-06
4.9517402e-05
2.1121062e-06
3.1138299e-06
4.6105482e-05
1.7220197e-06
2.7597474e-06
4.3121558e-05
1.4089355e-06
2.4437429e-06
4.0515558e-05
1.1637552e-06
2.163346e-06
3.8237948e-05
9.7485852e-07
1.9152336e-06
3.6242683e-05
8.3055973e-07
1.6959573e-06
3.4488759e-05
7.2043696e-07
1.5022849e-06
3.2940716e-05
6.3586294e-07
1.3313172e-06
3.1568463e-05
5.7005006e-07
1.1804931e-06
3.0346733e-05
5.1784897e-07
1.0475522e-06
2.9254398e-05
4.7545956e-07
9.3049032e-07
2.8273782e-05
4.4013957e-07
8.2752021e-07
2.7390054e-05
4.099489e-07
7.3704008e-07
2.6590699e-05
3.8353956e-07
6.5760856e-07
2.5865102e-05
3.599889e-07
5.8793074e-07
2.5204198e-05
3.3867636e-07
5.2684263e-07
2.4600205e-05
3.1918361e-07
4.7330348e-07
2.4046429e-05
3.0120192e-07
4.2639018e-07
2.3537073e-05
2.8455206e-07
3.8526716e-07
2.3067119e-05
2.69111e-07
3.491824e-07
2.2632208e-05
2.5478166e-07
3.1747789e-07
2.2228528e-05
2.4147381e-07
2.8959532e-07
2.1852744e-05
2.2911071e-07
2.6504126e-07
2.1501947e-05
2.1762891e-07
2.4337255e-07
2.1173591e-05
2.0696952e-07
2.2420571e-07
2.0865444e-05
1.9707571e-07
2.0720869e-07
2.0575549e-05
1.8789255e-07
1.9209395e-07
2.0302183e-05
1.7936725e-07
1.7861345e-07
2.0043829e-05
1.7144909e-07
1.6655325e-07
1.979915e-05
1.6408982e-07
1.5572943e-07
1.956696e-05
1.5724381e-07
1.4598403e-07
1.934621e-05
1.5086896e-07
1.3718217e-07
1.9135969e-05
1.4492656e-07
1.2920884e-07
1.8935407e-05
1.3937908e-07
1.2196305e-07
1.8743783e-05
1.3419232e-07
1.1535761e-07
1.8560435e-05
1.2933508e-07
1.0931727e-07
1.8384766e-05
1.2477908e-07
1.0377715e-07
1.8216241e-05
1.2049855e-07
9.8681314e-08
1.8054377e-05
1.1647014e-07
9.3981307e-08
1.7898734e-05
1.1267295e-07
8.9635436e-08
1.7748917e-05
1.0908823e-07
8.560703e-08
1.7604563e-05
1.0570003e-07
8.186241e-08
1.7465345e-05
1.0249336e-07
7.8373279e-08
1.7330962e-05
9.9452981e-08
7.5116977e-08
1.7201138e-05
9.6564412e-08
7.2072718e-08
1.7075619e-05
9.381664e-08
6.9221121e-08
1.695417e-05
9.1201142e-08
6.6545097e-08
1.6836577e-05
8.8709117e-08
6.4029533e-08
1.6722638e-05
8.6331952e-08
6.1661059e-08
1.661217e-05
8.4061749e-08
5.9427714e-08
1.6505001e-05
8.1891534e-08
5.731887e-08
1.640097e-05
7.9814943e-08
5.5324833e-08
1.6299929e-05
7.7826151e-08
5.3437143e-08
1.620174e-05
7.5919862e-08
5.1647893e-08
1.6106272e-05
7.4091011e-08
4.9950114e-08
1.6013404e-05
7.2335004e-08
4.8337363e-08
1.5923022e-05
7.0647722e-08
4.6803843e-08
1.5835019e-05
6.9025722e-08
4.5344244e-08
1.5749294e-05
6.7465521e-08
4.3953674e-08
1.5665753e-05
6.5963766e-08
4.2627679e-08
1.5584307e-05
6.4517354e-08
4.1362155e-08
1.5504871e-05
6.3123409e-08
4.0153352e-08
1.5427365e-05
6.17793e-08
3.8997779e-08
1.5351716e-05
6.0482549e-08
3.7892256e-08
1.5277852e-05
5.9230844e-08
3.6833859e-08
1.5205705e-05
5.8022006e-08
3.581972e-08
1.5135212e-05
5.6854029e-08
3.4847365e-08
1.5066313e-05
5.5725035e-08
3.3914364e-08
1.499895e-05
5.463314e-08
3.3018376e-08
1.493307e-05
5.3576739e-08
3.215744e-08
1.4868621e-05
5.2554188e-08
3.1329421e-08
1.4805554e-05
5.1563938e-08
3.0532419e-08
1.4743823e-05
5.0604475e-08
2.9764685e-08
1.4683386e-05
4.9674255e-08
2.9024378e-08
1.4624199e-05
4.8771836e-08
2.8309878e-08
1.4566226e-05
4.7895496e-08
2.7619555e-08
1.4509431e-05
4.7043508e-08
2.6951975e-08
1.4453778e-05
4.6214117e-08
2.630578e-08
1.4399237e-05
4.5405416e-08
2.5679908e-08
1.4345777e-05
4.4615702e-08
2.5073763e-08
1.4293367e-05
4.3844265e-08
2.4487725e-08
1.4241972e-05
4.3092874e-08
2.3923746e-08
1.4191548e-05
4.2369925e-08
2.3387159e-08
1.4142019e-05
4.1699316e-08
2.2889612e-08
1.4093249e-05
4.1141614e-08
2.2456652e-08
1.4044951e-05
4.0844649e-08
2.2146576e-08
1.3996485e-05
4.1169164e-08
2.2123034e-08
1.3946229e-05
4.30123e-08
2.2985412e-08
1.389015e-05
4.8540267e-08
2.5565805e-08
6.328157e-08
5.0000855e-08
0.00010603565
2.7876425e-06
6.4750379e-06
0.00010074799
4.4145413e-06
6.5685292e-06
9.5493515e-05
4.8594028e-06
6.1741158e-06
9.0256432e-05
4.930369e-06
5.9581921e-06
8.5101366e-05
4.8311767e-06
5.6908011e-06
8.0102875e-05
4.5561761e-06
5.3445981e-06
7.5322251e-05
4.1469521e-06
4.9614853e-06
7.0803266e-05
3.6678926e-06
4.5689837e-06
6.6576264e-05
3.1701903e-06
4.1811254e-06
6.2660725e-05
2.6900109e-06
3.8075976e-06
5.9065443e-05
2.2519319e-06
3.4554566e-06
5.5788936e-05
1.8697304e-06
3.1287957e-06
5.2820978e-05
1.5477473e-06
2.8291458e-06
5.014479e-05
1.2836302e-06
2.556314e-06
4.7739304e-05
1.07123e-06
2.3091141e-06
4.5581183e-05
9.0281506e-07
2.0858661e-06
4.3646423e-05
7.7048778e-07
1.884709e-06
4.1911533e-05
6.6697371e-07
1.7037793e-06
4.0354306e-05
5.8598195e-07
1.541295e-06
3.8954268e-05
5.2230222e-07
1.3955849e-06
3.769288e-05
4.7175606e-07
1.265091e-06
3.6553576e-05
4.3107984e-07
1.1483634e-06
3.552169e-05
3.9778203e-07
1.0440533e-06
3.4584322e-05
3.699988e-07
9.5090832e-07
3.3730181e-05
3.4635986e-07
8.6777019e-07
3.2949411e-05
3.2587761e-07
7.9356872e-07
3.2233419e-05
3.0784047e-07
7.2733483e-07
3.157471e-05
2.9172983e-07
6.6818103e-07
3.0966769e-05
2.7719267e-07
6.1530129e-07
3.0403928e-05
2.6398103e-07
5.6797022e-07
2.9881258e-05
2.5190852e-07
5.2554316e-07
2.9394455e-05
2.408271e-07
4.8745002e-07
2.8939761e-05
2.3062156e-07
4.5318328e-07
2.8513895e-05
2.212015e-07
4.2229386e-07
2.8113985e-05
2.1249197e-07
3.9438674e-07
2.7737518e-05
2.0442797e-07
3.691149e-07
2.7382285e-05
1.9695192e-07
3.4617383e-07
2.7046344e-05
1.9001178e-07
3.252968e-07
2.6727982e-05
1.8355995e-07
3.0625044e-07
2.6425689e-05
1.7755272e-07
2.8883085e-07
2.6138123e-05
1.7195003e-07
2.7285983e-07
2.5864094e-05
1.6671516e-07
2.5818181e-07
2.5602546e-05
1.6181457e-07
2.446609e-07
2.535253e-05
1.5721708e-07
2.3217765e-07
2.51132e-05
1.5289443e-07
2.2062727e-07
2.4883797e-05
1.4882097e-07
2.0991772e-07
2.4663634e-05
1.4497367e-07
1.9996809e-07
2.4452094e-05
1.4133183e-07
1.9070708e-07
2.4248615e-05
1.3787695e-07
1.8207152e-07
2.405269e-05
1.3459266e-07
1.7400569e-07
2.3863854e-05
1.3146462e-07
1.664599e-07
2.3681684e-05
1.2848058e-07
1.5938925e-07
2.3505794e-05
1.2562917e-07
1.5275411e-07
2.3335829e-05
1.2289869e-07
1.4651968e-07
2.3171462e-05
1.2027636e-07
1.4065462e-07
2.3012394e-05
1.1775473e-07
1.3513023e-07
2.2858345e-05
1.1532969e-07
1.2992042e-07
2.2709057e-05
1.1299538e-07
1.2500176e-07
2.2564291e-05
1.1074516e-07
1.2035292e-07
2.2423824e-05
1.0857347e-07
1.159546e-07
2.2287451e-05
1.0647548e-07
1.1178926e-07
2.2154978e-05
1.0444702e-07
1.0784078e-07
2.2026226e-05
1.0248421e-07
1.0409457e-07
2.1901025e-05
1.0058351e-07
1.0053716e-07
2.1779218e-05
9.8741536e-08
9.715614e-08
2.1660658e-05
9.6954883e-08
9.3940261e-08
2.1545205e-05
9.5221287e-08
9.0879039e-08
2.1432729e-05
9.3538815e-08
8.7962809e-08
2.1323107e-05
9.1905318e-08
8.5182588e-08
2.1216222e-05
9.0318538e-08
8.2530189e-08
2.1111965e-05
8.877639e-08
7.9997894e-08
2.1010233e-05
8.7277125e-08
7.7578657e-08
2.0910927e-05
8.581898e-08
7.5265879e-08
2.0813956e-05
8.4400325e-08
7.305345e-08
2.0719232e-05
8.3019694e-08
7.0935657e-08
2.0626671e-05
8.1675646e-08
6.8907209e-08
2.0536195e-05
8.0366806e-08
6.6963121e-08
2.0447729e-05
7.9091993e-08
6.5098751e-08
2.0361203e-05
7.7849842e-08
6.3309744e-08
2.0276548e-05
7.6639247e-08
6.1592011e-08
2.0193702e-05
7.5458984e-08
5.9941729e-08
2.0112602e-05
7.4307972e-08
5.8355232e-08
2.0033193e-05
7.3184959e-08
5.6829064e-08
1.9955419e-05
7.2088644e-08
5.535998e-08
1.9879228e-05
7.1017634e-08
5.3944842e-08
1.9804572e-05
6.9970453e-08
5.2580727e-08
1.9731406e-05
6.8945277e-08
5.1264809e-08
1.9659685e-05
6.7940139e-08
4.9994394e-08
1.9589371e-05
6.6953055e-08
4.8767071e-08
1.9520423e-05
6.5982368e-08
4.7580559e-08
1.9452807e-05
6.5028028e-08
4.6433095e-08
1.9386482e-05
6.4094134e-08
4.5323759e-08
1.9321404e-05
6.3194707e-08
4.4253069e-08
1.9257511e-05
6.2366335e-08
4.3225188e-08
1.9194705e-05
6.1695197e-08
4.2253141e-08
1.9132798e-05
6.1374064e-08
4.13774e-08
1.9071394e-05
6.182243e-08
4.0750653e-08
1.9009424e-05
6.3924759e-08
4.1057616e-08
1.8944661e-05
6.9304698e-08
4.3998837e-08
7.9170944e-08
7.4661535e-08
0.0001054937
1.9169871e-06
6.4880407e-06
0.00010005365
3.2729596e-06
6.5816334e-06
9.4926077e-05
3.8288995e-06
6.1580776e-06
8.9946373e-05
3.9838109e-06
5.9262629e-06
8.5163276e-05
3.9595077e-06
5.6547657e-06
8.0619137e-05
3.7899368e-06
5.3103784e-06
7.6329462e-05
3.5015547e-06
4.9350725e-06
7.230016e-05
3.1412013e-06
4.5559928e-06
6.8534206e-05
2.7514802e-06
4.1846641e-06
6.5032983e-05
2.3633493e-06
3.8278853e-06
6.1795789e-05
1.9984143e-06
3.490711e-06
5.8818843e-05
1.670376e-06
3.176301e-06
5.6094717e-05
1.3858295e-06
2.886043e-06
5.3612488e-05
1.1457945e-06
2.6200649e-06
5.1358373e-05
9.476412e-07
2.3777043e-06
4.9316593e-05
7.8676784e-07
2.1578272e-06
4.7470246e-05
6.5779546e-07
1.9590391e-06
4.5802069e-05
5.553254e-07
1.7798252e-06
4.4295042e-05
4.7437115e-07
1.6186378e-06
4.293283e-05
4.1056667e-07
1.473948e-06
4.1700078e-05
3.6023237e-07
1.3442759e-06
4.0582591e-05
3.2035743e-07
1.2282094e-06
3.956742e-05
2.8853736e-07
1.1244154e-06
3.8642881e-05
2.6289063e-07
1.0316467e-06
3.7798527e-05
2.4196986e-07
9.4874398e-07
3.7025076e-05
2.2467704e-07
8.746517e-07
3.6314324e-05
2.1018899e-07
8.0840408e-07
3.5659057e-05
1.9788606e-07
7.491104e-07
3.5052961e-05
1.8731584e-07
6.9597281e-07
3.4490519e-05
1.7814871e-07
6.4827381e-07
3.3966922e-05
1.7013173e-07
6.0537443e-07
3.3477973e-05
1.6306727e-07
5.6670868e-07
3.3020016e-05
1.5680297e-07
5.3177543e-07
3.2589865e-05
1.5122053e-07
5.0013244e-07
3.218474e-05
1.4622562e-07
4.7139135e-07
3.1802215e-05
1.417407e-07
4.4521231e-07
3.1440168e-05
1.3770091e-07
4.2129807e-07
3.1096739e-05
1.3405096e-07
3.9938926e-07
3.0770297e-05
1.3074294e-07
3.7925957e-07
3.0459402e-05
1.2773517e-07
3.6071196e-07
3.0162787e-05
1.2499093e-07
3.4357478e-07
2.9879325e-05
1.2247785e-07
3.2769849e-07
2.960802e-05
1.2016732e-07
3.129527e-07
2.934798e-05
1.1803381e-07
2.9922353e-07
2.9098408e-05
1.1605461e-07
2.8641136e-07
2.885859e-05
1.1420983e-07
2.7442904e-07
2.8627882e-05
1.1248189e-07
2.6319998e-07
2.8405701e-05
1.1085558e-07
2.5265685e-07
2.819152e-05
1.0931756e-07
2.4274023e-07
2.7984859e-05
1.0785646e-07
2.3339756e-07
2.7785279e-05
1.0646278e-07
2.2458211e-07
2.7592378e-05
1.0512871e-07
2.1625214e-07
2.740579e-05
1.0384737e-07
2.0837036e-07
2.7225174e-05
1.0261117e-07
2.0090362e-07
2.705022e-05
1.0140749e-07
1.938226e-07
2.6880641e-05
1.0023383e-07
1.8710044e-07
2.6716166e-05
9.9092363e-08
1.8071225e-07
2.6556546e-05
9.7980016e-08
1.7463558e-07
2.6401548e-05
9.6892497e-08
1.6885016e-07
2.6250957e-05
9.5827044e-08
1.6333738e-07
2.610457e-05
9.4781683e-08
1.5808045e-07
2.5962199e-05
9.3754728e-08
1.5306359e-07
2.5823666e-05
9.2744881e-08
1.4827259e-07
2.5688804e-05
9.1751002e-08
1.4369414e-07
2.5557458e-05
9.0771774e-08
1.3931598e-07
2.5429481e-05
8.9805205e-08
1.3512691e-07
2.5304734e-05
8.8851487e-08
1.3111643e-07
2.5183087e-05
8.7911237e-08
1.2727464e-07
2.5064416e-05
8.6983916e-08
1.2359243e-07
2.4948604e-05
8.6068935e-08
1.200612e-07
2.4835542e-05
8.5165815e-08
1.1667301e-07
2.4725124e-05
8.4274348e-08
1.1342048e-07
2.4617252e-05
8.3394294e-08
1.1029655e-07
2.4511832e-05
8.2525468e-08
1.0729476e-07
2.4408775e-05
8.1667736e-08
1.0440899e-07
2.4307997e-05
8.0820986e-08
1.0163343e-07
2.4209416e-05
7.9985045e-08
9.8962667e-08
2.4112956e-05
7.9159748e-08
9.6391552e-08
2.4018546e-05
7.8345039e-08
9.3915292e-08
2.3926115e-05
7.7540691e-08
9.1529276e-08
2.3835598e-05
7.6746545e-08
8.9229234e-08
2.3746933e-05
7.5962307e-08
8.7011013e-08
2.366006e-05
7.5187645e-08
8.4870738e-08
2.3574922e-05
7.4422014e-08
8.2804566e-08
2.3491466e-05
7.3664639e-08
8.0808937e-08
2.3409641e-05
7.2914636e-08
7.8880382e-08
2.33294e-05
7.2170721e-08
7.7015512e-08
2.3250698e-05
7.1431345e-08
7.5211032e-08
2.3173493e-05
7.0694908e-08
7.3463645e-08
2.3097745e-05
6.9960231e-08
7.1770095e-08
2.3023418e-05
6.922801e-08
7.0127018e-08
2.2950477e-05
6.8503528e-08
6.8531147e-08
2.2878889e-05
6.7802884e-08
6.6979667e-08
2.2808619e-05
6.7165065e-08
6.5471579e-08
2.2739625e-05
6.6675265e-08
6.4013339e-08
2.267185e-05
6.6507099e-08
6.2642291e-08
2.2605149e-05
6.6990728e-08
6.1532343e-08
2.2538888e-05
6.8686042e-08
6.1499887e-08
2.2471121e-05
7.2226985e-08
6.4845113e-08
7.6722868e-08
9.8461334e-08
0.0001051979
1.3340884e-06
6.4961221e-06
9.9496561e-05
2.3731022e-06
6.6011947e-06
9.4262459e-05
2.9019224e-06
6.1610799e-06
8.9251186e-05
3.0856642e-06
5.9094196e-06
8.4493498e-05
3.0947347e-06
5.6224614e-06
8.0033635e-05
2.9846656e-06
5.265134e-06
7.5876907e-05
2.7790155e-06
4.8792667e-06
7.2014635e-05
2.5106844e-06
4.4927895e-06
6.8436293e-05
2.2128728e-06
4.1169489e-06
6.5131387e-05
1.9107259e-06
3.7575291e-06
6.208941e-05
1.621732e-06
3.4186596e-06
5.9299432e-05
1.3573877e-06
3.1029661e-06
5.6749589e-05
1.1240344e-06
2.8116386e-06
5.4426788e-05
9.2377947e-07
2.5448157e-06
5.2316754e-05
7.55728e-07
2.3019466e-06
5.0404313e-05
6.1717854e-07
2.0820302e-06
4.8673788e-05
5.0454351e-07
1.8837772e-06
4.7109414e-05
4.1397181e-07
1.7057274e-06
4.5695713e-05
3.4173649e-07
1.5463363e-06
4.4417792e-05
2.8445146e-07
1.4040359e-06
4.3261575e-05
2.3917111e-07
1.277278e-06
4.2213952e-05
2.0341504e-07
1.1645652e-06
4.1262871e-05
1.7514745e-07
1.0644718e-06
4.039737e-05
1.5273233e-07
9.7565899e-07
3.9607583e-05
1.3487527e-07
8.9688144e-07
3.8884688e-05
1.2055568e-07
8.2701639e-07
3.8220848e-05
1.0901092e-07
7.6501854e-07
3.7609155e-05
9.9633866e-08
7.0994487e-07
3.7043542e-05
9.1977458e-08
6.6095088e-07
3.6518702e-05
8.570582e-08
6.1728289e-07
3.6030009e-05
8.0552416e-08
5.782731e-07
3.5573433e-05
7.6308313e-08
5.4333413e-07
3.5145475e-05
7.2811284e-08
5.119503e-07
3.4743091e-05
6.9934134e-08
4.8367024e-07
3.4363641e-05
6.7575446e-08
4.5810065e-07
3.4004828e-05
6.5652874e-08
4.3489998e-07
3.3664659e-05
6.409858e-08
4.1377211e-07
3.3341393e-05
6.2855921e-08
3.9446098e-07
3.3033513e-05
6.1877041e-08
3.7674526e-07
3.2739693e-05
6.1121096e-08
3.6043426e-07
3.2458768e-05
6.0553063e-08
3.453633e-07
3.2189712e-05
6.0142649e-08
3.3139057e-07
3.1931622e-05
5.986364e-08
3.1839378e-07
3.1683696e-05
5.9693127e-08
3.0626736e-07
3.1445219e-05
5.9611173e-08
2.9492012e-07
3.1215555e-05
5.9600624e-08
2.8427316e-07
3.0994132e-05
5.9646526e-08
2.7425807e-07
3.0780436e-05
5.9736142e-08
2.648154e-07
3.0574002e-05
5.9858664e-08
2.5589335e-07
3.0374407e-05
6.0004932e-08
2.474466e-07
3.0181267e-05
6.0167613e-08
2.3943548e-07
2.9994229e-05
6.0341241e-08
2.3182486e-07
2.9812971e-05
6.0521788e-08
2.2458375e-07
2.9637193e-05
6.0704458e-08
2.1768457e-07
2.9466629e-05
6.0867301e-08
2.111046e-07
2.9301024e-05
6.1017009e-08
2.0482181e-07
2.914014e-05
6.1160895e-08
1.9881569e-07
2.8983756e-05
6.129497e-08
1.9306837e-07
2.8831669e-05
6.1415486e-08
1.8756388e-07
2.8683688e-05
6.152094e-08
1.8228763e-07
2.8539633e-05
6.161055e-08
1.7722634e-07
2.8399336e-05
6.1683809e-08
1.7236781e-07
2.8262639e-05
6.1740498e-08
1.677009e-07
2.8129394e-05
6.1780698e-08
1.632152e-07
2.7999461e-05
6.1803924e-08
1.5890121e-07
2.7872709e-05
6.1807414e-08
1.5475034e-07
2.7749012e-05
6.1793592e-08
1.5075445e-07
2.7628253e-05
6.1764809e-08
1.4690558e-07
2.7510319e-05
6.1721014e-08
1.4319664e-07
2.7395105e-05
6.1662123e-08
1.3962083e-07
2.728251e-05
6.1588656e-08
1.3617199e-07
2.7172439e-05
6.1501023e-08
1.3284421e-07
2.7064802e-05
6.1399962e-08
1.2963192e-07
2.6959511e-05
6.1285932e-08
1.2652989e-07
2.6856486e-05
6.1159504e-08
1.2353326e-07
2.6755649e-05
6.1021302e-08
1.2063731e-07
2.6656924e-05
6.0871848e-08
1.1783766e-07
2.6560242e-05
6.0711725e-08
1.1513014e-07
2.6465535e-05
6.0541399e-08
1.125108e-07
2.6372738e-05
6.0361311e-08
1.0997578e-07
2.6281791e-05
6.0171948e-08
1.0752157e-07
2.6192636e-05
5.9973568e-08
1.0514471e-07
2.6105215e-05
5.9766331e-08
1.0284181e-07
2.6019477e-05
5.955028e-08
1.0060974e-07
2.5935371e-05
5.932517e-08
9.8445277e-08
2.585285e-05
5.9090532e-08
9.6345368e-08
2.5771868e-05
5.8845527e-08
9.4306945e-08
2.5692384e-05
5.8589023e-08
9.2326743e-08
2.5614357e-05
5.8319801e-08
9.0401422e-08
2.5537753e-05
5.8037069e-08
8.8527305e-08
2.5462539e-05
5.7741651e-08
8.6700209e-08
2.5388689e-05
5.7438422e-08
8.4915145e-08
2.5316184e-05
5.7141413e-08
8.3166611e-08
2.5245017e-05
5.688261e-08
8.1449629e-08
2.51752e-05
5.6726048e-08
7.9765805e-08
2.510677e-05
5.6787906e-08
7.8149194e-08
2.5039729e-05
5.72516e-08
7.6780971e-08
2.4973573e-05
5.8330935e-08
7.6510206e-08
2.4906079e-05
5.9989485e-08
7.9732162e-08
6.0715001e-08
1.1287821e-07
0.00010503672
9.0789372e-07
6.5005614e-06
9.9140653e-05
1.6524914e-06
6.6166802e-06
9.3788329e-05
2.0825242e-06
6.1717217e-06
8.8708526e-05
2.2549373e-06
5.91053e-06
8.3909682e-05
2.278404e-06
5.6151748e-06
7.9437109e-05
2.2074821e-06
5.2497564e-06
7.5296201e-05
2.0645348e-06
4.8553893e-06
7.1474034e-05
1.8722543e-06
4.4605969e-06
6.7955013e-05
1.6547667e-06
4.0771269e-06
6.4723621e-05
1.4313505e-06
3.7107669e-06
6.1764423e-05
1.2154297e-06
3.3655007e-06
5.9062056e-05
1.015864e-06
3.0438911e-06
5.6601108e-05
8.3782743e-07
2.7471548e-06
5.4365944e-05
6.8344648e-07
2.475497e-06
5.2340648e-05
5.5258527e-07
2.2284383e-06
5.0509125e-05
4.4366551e-07
2.0050361e-06
4.8855299e-05
3.5433455e-07
1.8040352e-06
4.7363353e-05
2.8193591e-07
1.6239821e-06
4.6017963e-05
2.2381346e-07
1.4633127e-06
4.4804503e-05
1.7749383e-07
1.3204181e-06
4.3709199e-05
1.407809e-07
1.1936935e-06
4.2719248e-05
1.1179157e-07
1.081575e-06
4.1822875e-05
8.8954536e-08
9.8256585e-07
4.1009364e-05
7.0987982e-08
8.9525472e-07
4.0269054e-05
5.686182e-08
8.1832379e-07
3.9593306e-05
4.5719111e-08
7.5058476e-07
3.8974405e-05
3.697787e-08
6.9093436e-07
3.8405585e-05
3.0067374e-08
6.383863e-07
3.7880869e-05
2.4650851e-08
5.9204242e-07
3.7395029e-05
2.0440003e-08
5.5110608e-07
3.6943514e-05
1.7190288e-08
5.1487717e-07
3.6522366e-05
1.4716738e-08
4.8273957e-07
3.6128148e-05
1.2874781e-08
4.5415389e-07
3.5757883e-05
1.1549918e-08
4.2864944e-07
3.5408991e-05
1.0650788e-08
4.0581704e-07
3.5079238e-05
1.0103628e-08
3.8530226e-07
3.4766689e-05
9.8482693e-09
3.6679877e-07
3.4469668e-05
9.8351087e-09
3.5004235e-07
3.4186716e-05
1.0022922e-08
3.3480552e-07
3.3916567e-05
1.0377041e-08
3.2089288e-07
3.3658116e-05
1.0868081e-08
3.0813661e-07
3.3410395e-05
1.1470959e-08
2.9639283e-07
3.3172556e-05
1.2164209e-08
2.8553824e-07
3.2943852e-05
1.2929315e-08
2.7546718e-07
3.2723625e-05
1.3750188e-08
2.6608893e-07
3.2511286e-05
1.4613062e-08
2.573257e-07
3.2306316e-05
1.550623e-08
2.4911066e-07
3.2108246e-05
1.64196e-08
2.4138623e-07
3.1916658e-05
1.7344595e-08
2.341027e-07
3.1731171e-05
1.8274309e-08
2.2721711e-07
3.1551444e-05
1.9203166e-08
2.2069213e-07
3.1377162e-05
2.0127716e-08
2.1449508e-07
3.1208038e-05
2.1048622e-08
2.0859681e-07
3.10438e-05
2.1972749e-08
2.0297055e-07
3.0884232e-05
2.2827863e-08
1.9760735e-07
3.0729103e-05
2.3662971e-08
1.9248227e-07
3.05782e-05
2.4490008e-08
1.8757382e-07
3.0431331e-05
2.5296282e-08
1.828676e-07
3.0288318e-05
2.607797e-08
1.7835073e-07
3.0148994e-05
2.6834295e-08
1.7401107e-07
3.0013202e-05
2.7564676e-08
1.6983755e-07
2.9880797e-05
2.8268974e-08
1.6582025e-07
2.975164e-05
2.8947445e-08
1.6195013e-07
2.96256e-05
2.9600768e-08
1.5821896e-07
2.9502557e-05
3.0228571e-08
1.5461919e-07
2.9382396e-05
3.082359e-08
1.5114465e-07
2.9265007e-05
3.1393129e-08
1.4778877e-07
2.9150287e-05
3.1939593e-08
1.4454538e-07
2.9038137e-05
3.2461885e-08
1.41409e-07
2.8928465e-05
3.2960062e-08
1.3837459e-07
2.8821181e-05
3.3434743e-08
1.354375e-07
2.8716203e-05
3.388636e-08
1.325933e-07
2.8613449e-05
3.4315536e-08
1.2983786e-07
2.8512845e-05
3.4722868e-08
1.2716735e-07
2.8414317e-05
3.5108977e-08
1.2457816e-07
2.8317797e-05
3.5474436e-08
1.2206679e-07
2.8223219e-05
3.5819875e-08
1.1963008e-07
2.813052e-05
3.6145923e-08
1.1726491e-07
2.803964e-05
3.64531e-08
1.149684e-07
2.7950522e-05
3.6741893e-08
1.1273772e-07
2.7863111e-05
3.7012833e-08
1.1057026e-07
2.7777354e-05
3.7266263e-08
1.0846343e-07
2.7693204e-05
3.7502504e-08
1.0641472e-07
2.761061e-05
3.772161e-08
1.0442174e-07
2.752953e-05
3.7923593e-08
1.0248201e-07
2.744992e-05
3.8108042e-08
1.0059305e-07
2.7371738e-05
3.8274314e-08
9.8752275e-08
2.7294949e-05
3.8421542e-08
9.6956898e-08
2.7219516e-05
3.8548779e-08
9.5203619e-08
2.714541e-05
3.8655152e-08
9.3488633e-08
2.7072603e-05
3.8741148e-08
9.1806931e-08
2.7001079e-05
3.8810265e-08
9.0152308e-08
2.6930832e-05
3.887215e-08
8.8516548e-08
2.6861876e-05
3.8947401e-08
8.6890528e-08
2.679426e-05
3.9073528e-08
8.5269193e-08
2.6728065e-05
3.9306958e-08
8.3675936e-08
2.6663337e-05
3.9708348e-08
8.2271148e-08
2.659956e-05
4.0272008e-08
8.1836169e-08
2.6534295e-05
4.0698025e-08
8.4555697e-08
3.9620856e-08
1.1507129e-07
0.00010494757
5.6811083e-07
6.5033076e-06
9.8925416e-05
1.0462983e-06
6.6283517e-06
9.3480449e-05
1.3439845e-06
6.1835066e-06
8.8341777e-05
1.4751324e-06
5.9184763e-06
8.3502084e-05
1.4993911e-06
5.6187065e-06
7.9004057e-05
1.4572411e-06
5.2482679e-06
7.4853978e-05
1.3667382e-06
4.8478757e-06
7.1037378e-05
1.2423973e-06
4.4464569e-06
6.7536063e-05
1.0997693e-06
4.0563127e-06
6.4331998e-05
9.5192359e-07
3.683491e-06
6.1407318e-05
8.0805755e-07
3.3320524e-06
5.8744339e-05
6.7422203e-07
3.0046209e-06
5.6325632e-05
5.5404396e-07
2.7024907e-06
5.4133973e-05
4.4916748e-07
2.4259383e-06
5.2152298e-05
3.5972399e-07
2.174536e-06
5.0363747e-05
2.8484512e-07
1.9473718e-06
4.875178e-05
2.2310005e-07
1.7432015e-06
4.7300339e-05
1.728117e-07
1.5605647e-06
4.5994012e-05
1.3226572e-07
1.3978748e-06
4.4818177e-05
9.9840028e-08
1.2534891e-06
4.3759121e-05
7.4075602e-08
1.1257614e-06
4.2804123e-05
5.3707649e-08
1.0130814e-06
4.1941503e-05
3.7671208e-08
9.1390375e-07
4.1160627e-05
2.5096453e-08
8.2676731e-07
4.0451891e-05
1.5294174e-08
7.5030387e-07
3.980679e-05
7.5281818e-09
6.8329177e-07
3.9217543e-05
1.672746e-09
6.2455203e-07
3.8677513e-05
-3.0331019e-09
5.7313083e-07
3.8180739e-05
-6.6486706e-09
5.2807353e-07
3.7722004e-05
-9.3595138e-09
4.8853451e-07
3.7296777e-05
-1.1371795e-08
4.5378928e-07
3.6901112e-05
-1.2818233e-08
4.2319913e-07
3.6531588e-05
-1.3805294e-08
3.9620481e-07
3.6185236e-05
-1.4417463e-08
3.7231874e-07
3.5859491e-05
-1.472189e-08
3.5111775e-07
3.5552132e-05
-1.4772625e-08
3.3223577e-07
3.5261237e-05
-1.4613927e-08
3.1535728e-07
3.4985143e-05
-1.4282161e-08
3.0021089e-07
3.472241e-05
-1.3807691e-08
2.8656376e-07
3.4471787e-05
-1.3215897e-08
2.7421632e-07
3.4232185e-05
-1.2528199e-08
2.6299771e-07
3.4002657e-05
-1.1762827e-08
2.5276175e-07
3.3782373e-05
-1.0935277e-08
2.4338336e-07
3.3570606e-05
-1.0058745e-08
2.3475557e-07
3.3366714e-05
-9.1447143e-09
2.267867e-07
3.3170131e-05
-8.2027994e-09
2.1939832e-07
3.2980356e-05
-7.2412277e-09
2.12523e-07
3.279694e-05
-6.2668996e-09
2.0610279e-07
3.2619482e-05
-5.2855584e-09
2.0008787e-07
3.2447623e-05
-4.3018483e-09
1.944348e-07
3.228104e-05
-3.3190599e-09
1.8910583e-07
3.2119438e-05
-2.3383456e-09
1.8406733e-07
3.1962554e-05
-1.3530466e-09
1.7928647e-07
3.1810075e-05
-2.7635333e-10
1.7472765e-07
3.1661878e-05
5.8581752e-10
1.7043903e-07
3.1517732e-05
1.4356215e-09
1.6637295e-07
3.1377429e-05
2.3038295e-09
1.6248957e-07
3.1240792e-05
3.1586394e-09
1.5877483e-07
3.1107656e-05
3.9969925e-09
1.5521716e-07
3.0977867e-05
4.817164e-09
1.5180548e-07
3.0851284e-05
5.6179635e-09
1.4852968e-07
3.0727774e-05
6.399019e-09
1.4538077e-07
3.0607209e-05
7.1609266e-09
1.4235053e-07
3.0489473e-05
7.9059382e-09
1.3943121e-07
3.037445e-05
8.6357587e-09
1.3661579e-07
3.0262049e-05
9.3206543e-09
1.3390397e-07
3.0152163e-05
9.9938193e-09
1.3128568e-07
3.0044697e-05
1.0650365e-08
1.2875513e-07
2.9939564e-05
1.1286728e-08
1.263083e-07
2.983668e-05
1.1903213e-08
1.2394086e-07
2.9735965e-05
1.2500177e-08
1.2164883e-07
2.9637345e-05
1.3077878e-08
1.1942844e-07
2.9540748e-05
1.3636732e-08
1.1727617e-07
2.9446105e-05
1.4177011e-08
1.1518882e-07
2.9353352e-05
1.4699165e-08
1.1316338e-07
2.9262425e-05
1.5203539e-08
1.1119703e-07
2.9173268e-05
1.5690494e-08
1.092871e-07
2.9085822e-05
1.6160417e-08
1.0743105e-07
2.9000035e-05
1.6613595e-08
1.0562663e-07
2.8915855e-05
1.7050411e-08
1.0387152e-07
2.8833233e-05
1.7471116e-08
1.0216363e-07
2.8752123e-05
1.7875947e-08
1.0050077e-07
2.8672479e-05
1.8265081e-08
9.8881104e-08
2.8594259e-05
1.8638555e-08
9.7302494e-08
2.8517424e-05
1.8996229e-08
9.576296e-08
2.8441934e-05
1.933783e-08
9.426032e-08
2.8367753e-05
1.9662816e-08
9.2792319e-08
2.8294848e-05
1.9970467e-08
9.1356264e-08
2.8223187e-05
2.026002e-08
8.9948837e-08
2.8152746e-05
2.0530721e-08
8.8565932e-08
2.8083503e-05
2.0782581e-08
8.7201793e-08
2.8015447e-05
2.1017514e-08
8.584867e-08
2.7948582e-05
2.1240691e-08
8.4495845e-08
2.7882937e-05
2.1462717e-08
8.3129491e-08
2.7818574e-05
2.1700003e-08
8.1736545e-08
2.7755588e-05
2.1969291e-08
8.0324361e-08
2.7694014e-05
2.2266188e-08
7.9016045e-08
2.7633299e-05
2.2506286e-08
7.8480665e-08
2.7571004e-05
2.2393419e-08
8.0599458e-08
2.0993084e-08
1.0779945e-07
0.00010489986
2.7443378e-07
6.5049155e-06
9.8802772e-05
5.0716634e-07
6.6362236e-06
9.329591e-05
6.5854979e-07
6.1922972e-06
8.8116302e-05
7.2902546e-07
5.9257147e-06
8.3248198e-05
7.4378814e-07