/*--------------------------------*- C++ -*----------------------------------*\
  =========                 |
  \\      /  F ield         | OpenFOAM: The Open Source CFD Toolbox
   \\    /   O peration     | Website:  https://openfoam.org
    \\  /    A nd           | Version:  7
     \\/     M anipulation  |
\*---------------------------------------------------------------------------*/
FoamFile
{
    version     2.0;
    format      ascii;
    class       surfaceScalarField;
    location    "3250/water";
    object      phi;
}
// * * * * * * * * * * * * * * * * * * * * * * * * * * * * * * * * * * * * * //

dimensions      [1 0 -1 0 0 0 0];

internalField   nonuniform List<scalar> 
156660
(
9.9057239e-05
6.0010402e-06
6.0528092e-06
8.6847498e-05
6.0555113e-06
6.1542307e-06
7.5687891e-05
5.5111363e-06
5.6484701e-06
6.5441704e-05
5.0404181e-06
5.2057689e-06
5.6267661e-05
4.4956436e-06
4.6783991e-06
4.8318019e-05
3.8797648e-06
4.0698777e-06
4.1624776e-05
3.2524448e-06
3.4407982e-06
3.6124897e-05
2.660462e-06
2.839417e-06
3.1692235e-05
2.1345127e-06
2.2981489e-06
2.8162841e-05
1.6926975e-06
1.8366964e-06
2.5361437e-05
1.3399934e-06
1.4614113e-06
2.3124664e-05
1.0698477e-06
1.1669256e-06
2.1315127e-05
8.6875421e-07
9.4078224e-07
1.9825714e-05
7.2110063e-07
7.6831274e-07
1.8577278e-05
6.1248245e-07
6.3595309e-07
1.7513255e-05
5.3125221e-07
5.3277151e-07
1.6593744e-05
4.6879725e-07
4.5071349e-07
1.5790433e-05
4.191372e-07
3.8417389e-07
1.5082784e-05
3.7829071e-07
3.2935849e-07
1.4455417e-05
3.4367128e-07
2.8369564e-07
1.3896409e-05
3.1361409e-07
2.4539333e-07
1.339622e-05
2.870445e-07
2.131445e-07
1.2947015e-05
2.6326031e-07
1.8594509e-07
1.2542237e-05
2.4179365e-07
1.6298459e-07
1.2176318e-05
2.2232208e-07
1.4359688e-07
1.1844484e-05
2.0461481e-07
1.2721884e-07
1.1542609e-05
1.8849495e-07
1.1337973e-07
1.1267116e-05
1.7381574e-07
1.0167794e-07
1.1014892e-05
1.6046271e-07
9.1760824e-08
1.0783252e-05
1.4833967e-07
8.3300596e-08
1.0569851e-05
1.3734905e-07
7.6052136e-08
1.0372614e-05
1.2738862e-07
6.9848293e-08
1.0189731e-05
1.1836806e-07
6.451481e-08
1.001963e-05
1.1020446e-07
5.989662e-08
9.8609388e-06
1.0281923e-07
5.5871673e-08
9.7124594e-06
9.6137952e-08
5.2341386e-08
9.5731439e-06
9.0091163e-08
4.9224361e-08
9.4420759e-06
8.4614469e-08
4.6453565e-08
9.3184531e-06
7.9648662e-08
4.3974149e-08
9.2015723e-06
7.5139722e-08
4.1741098e-08
9.0908166e-06
7.1038157e-08
3.9717537e-08
8.9856432e-06
6.7301134e-08
3.7872295e-08
8.8855707e-06
6.3894267e-08
3.6178171e-08
8.7901757e-06
6.0780093e-08
3.4614927e-08
8.6990829e-06
5.7926152e-08
3.3166667e-08
8.611959e-06
5.5303723e-08
3.1820143e-08
8.5285072e-06
5.2887437e-08
3.0564387e-08
8.4484618e-06
5.0655076e-08
2.9390291e-08
8.3715848e-06
4.8587031e-08
2.8290013e-08
8.2976614e-06
4.666617e-08
2.7257209e-08
8.2264975e-06
4.4877487e-08
2.6286437e-08
8.1579202e-06
4.3208802e-08
2.5368537e-08
8.0917731e-06
4.1649055e-08
2.4498048e-08
8.0279108e-06
4.0187003e-08
2.3675366e-08
7.9662005e-06
3.881269e-08
2.2897532e-08
7.9065219e-06
3.7518404e-08
2.2160248e-08
7.8487639e-06
3.6297852e-08
2.1460168e-08
7.7928241e-06
3.5145145e-08
2.0794593e-08
7.7386083e-06
3.4054696e-08
2.0161143e-08
7.6860293e-06
3.3021346e-08
1.9557697e-08
7.6350063e-06
3.2040797e-08
1.8982266e-08
7.5854641e-06
3.1109053e-08
1.8433076e-08
7.537333e-06
3.0222591e-08
1.7908498e-08
7.4905478e-06
2.9378246e-08
1.7407015e-08
7.4450476e-06
2.8572991e-08
1.6927174e-08
7.4007755e-06
2.7804228e-08
1.6467808e-08
7.3576783e-06
2.7069589e-08
1.6027664e-08
7.3157056e-06
2.6367046e-08
1.5605612e-08
7.2748103e-06
2.5694627e-08
1.5200688e-08
7.2349479e-06
2.5050579e-08
1.4811847e-08
7.1960766e-06
2.4433061e-08
1.4438176e-08
7.158157e-06
2.3840672e-08
1.4078933e-08
7.1211518e-06
2.3271908e-08
1.3733297e-08
7.0850258e-06
2.2725509e-08
1.3400506e-08
7.0497456e-06
2.2200234e-08
1.3079936e-08
7.0152798e-06
2.1694921e-08
1.2770898e-08
6.9815985e-06
2.1208585e-08
1.247277e-08
6.9486733e-06
2.0740226e-08
1.2184934e-08
6.9164775e-06
2.0288962e-08
1.1906826e-08
6.8849857e-06
1.9853945e-08
1.163784e-08
6.8541739e-06
1.9434349e-08
1.1377461e-08
6.8240193e-06
1.9029433e-08
1.1125106e-08
6.7945006e-06
1.8638471e-08
1.0880235e-08
6.7655975e-06
1.8260747e-08
1.0642316e-08
6.7372912e-06
1.7895558e-08
1.0410763e-08
6.7095641e-06
1.7542103e-08
1.0185071e-08
6.6823996e-06
1.7199628e-08
9.9648685e-09
6.6557824e-06
1.6867278e-08
9.7497983e-09
6.6296983e-06
1.6544118e-08
9.540001e-09
6.604133e-06
1.6229284e-08
9.3359854e-09
6.5790714e-06
1.592198e-08
9.1397024e-09
6.554494e-06
1.5622336e-08
8.9551188e-09
6.5303708e-06
1.5332555e-08
8.7906765e-09
6.5066467e-06
1.5060434e-08
8.6635813e-09
6.4832094e-06
1.4827772e-08
8.6095268e-09
6.4598103e-06
1.469309e-08
8.7060158e-09
6.4358387e-06
1.4826421e-08
9.1451247e-09
6.4096302e-06
1.5741748e-08
1.0466743e-08
6.3782855e-06
1.8026558e-08
1.3318221e-08
3.2300226e-08
2.7923553e-08
0.00010646494
4.1872385e-06
6.4599816e-06
0.0001002019
5.695418e-06
6.6231353e-06
9.3659588e-05
5.7790389e-06
6.2744098e-06
8.7011589e-05
5.6514782e-06
6.0369386e-06
8.0422927e-05
5.366912e-06
5.7173941e-06
7.4094022e-05
4.9022832e-06
5.3063862e-06
6.8167026e-05
4.3278135e-06
4.8516272e-06
6.2722565e-05
3.717891e-06
4.387032e-06
5.7799049e-05
3.1243144e-06
3.9337144e-06
5.3403345e-05
2.5820689e-06
3.5063329e-06
4.9517402e-05
2.1121062e-06
3.1138299e-06
4.6105482e-05
1.7220197e-06
2.7597474e-06
4.3121558e-05
1.4089355e-06
2.4437429e-06
4.0515558e-05
1.1637552e-06
2.163346e-06
3.8237948e-05
9.748585e-07
1.9152336e-06
3.6242683e-05
8.3055975e-07
1.6959573e-06
3.4488759e-05
7.2043698e-07
1.5022849e-06
3.2940716e-05
6.3586296e-07
1.3313172e-06
3.1568463e-05
5.7005005e-07
1.1804931e-06
3.0346733e-05
5.1784902e-07
1.0475522e-06
2.9254398e-05
4.7545959e-07
9.3049033e-07
2.8273782e-05
4.4013958e-07
8.2752023e-07
2.7390054e-05
4.0994894e-07
7.3704009e-07
2.6590699e-05
3.8353954e-07
6.5760855e-07
2.5865102e-05
3.5998888e-07
5.8793072e-07
2.5204197e-05
3.3867632e-07
5.268426e-07
2.4600205e-05
3.1918356e-07
4.7330351e-07
2.4046429e-05
3.0120187e-07
4.2639019e-07
2.3537073e-05
2.8455205e-07
3.8526714e-07
2.3067119e-05
2.6911099e-07
3.4918238e-07
2.2632208e-05
2.5478169e-07
3.1747783e-07
2.2228528e-05
2.414738e-07
2.895953e-07
2.1852744e-05
2.2911071e-07
2.6504124e-07
2.1501947e-05
2.1762893e-07
2.4337256e-07
2.1173591e-05
2.0696951e-07
2.2420573e-07
2.0865444e-05
1.9707569e-07
2.0720866e-07
2.0575549e-05
1.8789256e-07
1.9209399e-07
2.0302183e-05
1.7936723e-07
1.7861346e-07
2.0043829e-05
1.7144909e-07
1.6655327e-07
1.979915e-05
1.6408981e-07
1.5572943e-07
1.956696e-05
1.572438e-07
1.4598403e-07
1.934621e-05
1.5086891e-07
1.3718217e-07
1.9135969e-05
1.4492648e-07
1.2920884e-07
1.8935407e-05
1.3937905e-07
1.2196309e-07
1.8743783e-05
1.341923e-07
1.1535764e-07
1.8560435e-05
1.2933509e-07
1.0931729e-07
1.8384766e-05
1.2477907e-07
1.0377715e-07
1.8216241e-05
1.2049851e-07
9.8681288e-08
1.8054377e-05
1.1647013e-07
9.3981291e-08
1.7898734e-05
1.1267294e-07
8.9635419e-08
1.7748917e-05
1.0908824e-07
8.5607e-08
1.7604563e-05
1.0570006e-07
8.1862419e-08
1.7465345e-05
1.0249339e-07
7.8373291e-08
1.7330962e-05
9.9452989e-08
7.5116983e-08
1.7201138e-05
9.6564403e-08
7.2072719e-08
1.7075619e-05
9.381664e-08
6.9221135e-08
1.695417e-05
9.1201079e-08
6.6545117e-08
1.6836577e-05
8.8709144e-08
6.4029569e-08
1.6722638e-05
8.6331987e-08
6.1661061e-08
1.661217e-05
8.4061772e-08
5.9427701e-08
1.6505001e-05
8.189154e-08
5.7318815e-08
1.640097e-05
7.981493e-08
5.5324852e-08
1.6299929e-05
7.7826145e-08
5.3437147e-08
1.620174e-05
7.5919848e-08
5.16479e-08
1.6106272e-05
7.4091034e-08
4.9950127e-08
1.6013404e-05
7.2334999e-08
4.833738e-08
1.5923022e-05
7.0647725e-08
4.6803876e-08
1.5835019e-05
6.902568e-08
4.534425e-08
1.5749294e-05
6.7465521e-08
4.3953714e-08
1.5665753e-05
6.596375e-08
4.262769e-08
1.5584307e-05
6.4517341e-08
4.1362154e-08
1.5504871e-05
6.3123398e-08
4.0153355e-08
1.5427365e-05
6.17793e-08
3.8997787e-08
1.5351716e-05
6.0482568e-08
3.7892265e-08
1.5277852e-05
5.9230832e-08
3.6833847e-08
1.5205705e-05
5.8021978e-08
3.5819707e-08
1.5135212e-05
5.6854022e-08
3.4847353e-08
1.5066313e-05
5.5725018e-08
3.3914358e-08
1.499895e-05
5.463315e-08
3.3018415e-08
1.493307e-05
5.3576733e-08
3.2157433e-08
1.4868621e-05
5.2554196e-08
3.1329379e-08
1.4805554e-05
5.1563972e-08
3.0532423e-08
1.4743823e-05
5.0604487e-08
2.9764669e-08
1.4683386e-05
4.9674277e-08
2.9024387e-08
1.4624199e-05
4.8771829e-08
2.8309856e-08
1.4566226e-05
4.7895505e-08
2.7619572e-08
1.4509431e-05
4.7043515e-08
2.695198e-08
1.4453778e-05
4.6214109e-08
2.6305738e-08
1.4399237e-05
4.5405412e-08
2.5679891e-08
1.4345777e-05
4.4615741e-08
2.5073774e-08
1.4293367e-05
4.3844263e-08
2.4487707e-08
1.4241972e-05
4.3092896e-08
2.3923754e-08
1.4191548e-05
4.2369936e-08
2.3387149e-08
1.4142019e-05
4.1699323e-08
2.2889677e-08
1.4093249e-05
4.1141618e-08
2.2456607e-08
1.4044951e-05
4.0844676e-08
2.2146563e-08
1.3996485e-05
4.116918e-08
2.2123043e-08
1.3946229e-05
4.3012332e-08
2.2985374e-08
1.389015e-05
4.8540274e-08
2.556579e-08
6.3281569e-08
5.0000877e-08
0.00010603565
2.7876425e-06
6.4750379e-06
0.00010074799
4.4145413e-06
6.5685292e-06
9.5493515e-05
4.8594027e-06
6.1741158e-06
9.0256432e-05
4.930369e-06
5.9581921e-06
8.5101366e-05
4.8311767e-06
5.6908011e-06
8.0102875e-05
4.5561761e-06
5.3445981e-06
7.5322251e-05
4.1469521e-06
4.9614853e-06
7.0803266e-05
3.6678925e-06
4.5689837e-06
6.6576264e-05
3.1701903e-06
4.1811254e-06
6.2660725e-05
2.6900109e-06
3.8075976e-06
5.9065443e-05
2.2519319e-06
3.4554566e-06
5.5788936e-05
1.8697304e-06
3.1287957e-06
5.2820978e-05
1.5477473e-06
2.8291458e-06
5.014479e-05
1.2836302e-06
2.5563139e-06
4.7739304e-05
1.07123e-06
2.3091141e-06
4.5581183e-05
9.0281506e-07
2.0858661e-06
4.3646423e-05
7.704878e-07
1.884709e-06
4.1911533e-05
6.6697375e-07
1.7037793e-06
4.0354306e-05
5.8598201e-07
1.541295e-06
3.8954268e-05
5.2230222e-07
1.3955849e-06
3.769288e-05
4.7175607e-07
1.265091e-06
3.6553576e-05
4.3107985e-07
1.1483634e-06
3.552169e-05
3.9778208e-07
1.0440533e-06
3.4584322e-05
3.6999887e-07
9.5090833e-07
3.3730181e-05
3.4635986e-07
8.6777019e-07
3.2949411e-05
3.258776e-07
7.9356873e-07
3.2233419e-05
3.0784048e-07
7.2733486e-07
3.1574711e-05
2.9172984e-07
6.6818103e-07
3.0966769e-05
2.7719266e-07
6.1530127e-07
3.0403928e-05
2.6398101e-07
5.679702e-07
2.9881258e-05
2.5190845e-07
5.2554311e-07
2.9394455e-05
2.4082711e-07
4.8744998e-07
2.8939761e-05
2.3062161e-07
4.5318326e-07
2.8513895e-05
2.2120154e-07
4.2229386e-07
2.8113985e-05
2.1249197e-07
3.9438675e-07
2.7737518e-05
2.0442798e-07
3.6911492e-07
2.7382285e-05
1.9695194e-07
3.4617385e-07
2.7046344e-05
1.9001177e-07
3.252968e-07
2.6727982e-05
1.8355993e-07
3.0625046e-07
2.6425689e-05
1.7755271e-07
2.8883085e-07
2.6138122e-05
1.7195001e-07
2.7285985e-07
2.5864094e-05
1.6671514e-07
2.5818187e-07
2.5602546e-05
1.6181451e-07
2.4466092e-07
2.535253e-05
1.572171e-07
2.3217766e-07
2.51132e-05
1.5289439e-07
2.2062727e-07
2.4883797e-05
1.4882097e-07
2.0991775e-07
2.4663634e-05
1.4497365e-07
1.9996813e-07
2.4452094e-05
1.4133183e-07
1.907071e-07
2.4248615e-05
1.3787697e-07
1.8207153e-07
2.405269e-05
1.3459269e-07
1.7400572e-07
2.3863854e-05
1.3146463e-07
1.6645988e-07
2.3681684e-05
1.2848059e-07
1.5938924e-07
2.3505794e-05
1.2562919e-07
1.5275412e-07
2.3335829e-05
1.2289866e-07
1.4651969e-07
2.3171462e-05
1.2027635e-07
1.406546e-07
2.3012394e-05
1.1775471e-07
1.3513022e-07
2.2858345e-05
1.1532969e-07
1.2992041e-07
2.2709057e-05
1.1299539e-07
1.2500175e-07
2.2564291e-05
1.1074516e-07
1.2035288e-07
2.2423824e-05
1.0857346e-07
1.1595458e-07
2.2287451e-05
1.0647548e-07
1.1178925e-07
2.2154978e-05
1.0444701e-07
1.078408e-07
2.2026226e-05
1.0248418e-07
1.0409458e-07
2.1901025e-05
1.005835e-07
1.0053716e-07
2.1779218e-05
9.8741535e-08
9.7156159e-08
2.1660658e-05
9.6954883e-08
9.3940284e-08
2.1545205e-05
9.5221273e-08
9.0879066e-08
2.1432729e-05
9.3538814e-08
8.7962827e-08
2.1323107e-05
9.1905283e-08
8.5182603e-08
2.1216222e-05
9.0318514e-08
8.2530187e-08
2.1111965e-05
8.8776406e-08
7.9997901e-08
2.1010233e-05
8.7277124e-08
7.7578649e-08
2.0910927e-05
8.5818972e-08
7.526588e-08
2.0813956e-05
8.4400338e-08
7.3053429e-08
2.0719232e-05
8.3019714e-08
7.0935642e-08
2.0626671e-05
8.1675634e-08
6.890719e-08
2.0536195e-05
8.0366864e-08
6.696312e-08
2.0447729e-05
7.9091988e-08
6.5098778e-08
2.0361203e-05
7.7849811e-08
6.3309765e-08
2.0276548e-05
7.6639216e-08
6.1592037e-08
2.0193702e-05
7.5459028e-08
5.9941738e-08
2.0112602e-05
7.4308001e-08
5.8355232e-08
2.0033193e-05
7.318492e-08
5.6829066e-08
1.9955419e-05
7.2088618e-08
5.5359984e-08
1.9879228e-05
7.101763e-08
5.394486e-08
1.9804572e-05
6.997042e-08
5.2580708e-08
1.9731406e-05
6.8945262e-08
5.1264795e-08
1.9659685e-05
6.7940097e-08
4.999438e-08
1.9589371e-05
6.6953043e-08
4.8767057e-08
1.9520423e-05
6.5982372e-08
4.7580557e-08
1.9452807e-05
6.502805e-08
4.6433116e-08
1.9386482e-05
6.4094173e-08
4.5323746e-08
1.9321404e-05
6.3194711e-08
4.4253093e-08
1.9257511e-05
6.2366346e-08
4.3225246e-08
1.9194705e-05
6.1695161e-08
4.2253144e-08
1.9132798e-05
6.1374073e-08
4.1377389e-08
1.9071394e-05
6.1822414e-08
4.0750647e-08
1.9009424e-05
6.3924727e-08
4.1057618e-08
1.8944661e-05
6.9304669e-08
4.3998833e-08
7.9170933e-08
7.4661532e-08
0.0001054937
1.9169871e-06
6.4880406e-06
0.00010005365
3.2729596e-06
6.5816334e-06
9.4926077e-05
3.8288995e-06
6.1580776e-06
8.9946373e-05
3.9838108e-06
5.9262629e-06
8.5163276e-05
3.9595077e-06
5.6547657e-06
8.0619137e-05
3.7899368e-06
5.3103784e-06
7.6329462e-05
3.5015547e-06
4.9350725e-06
7.230016e-05
3.1412013e-06
4.5559928e-06
6.8534206e-05
2.7514802e-06
4.1846641e-06
6.5032983e-05
2.3633493e-06
3.8278852e-06
6.1795789e-05
1.9984143e-06
3.490711e-06
5.8818843e-05
1.6703759e-06
3.176301e-06
5.6094717e-05
1.3858295e-06
2.886043e-06
5.3612488e-05
1.1457945e-06
2.6200649e-06
5.1358373e-05
9.4764121e-07
2.3777043e-06
4.9316593e-05
7.8676784e-07
2.1578272e-06
4.7470246e-05
6.5779545e-07
1.9590391e-06
4.5802069e-05
5.5532542e-07
1.7798252e-06
4.4295042e-05
4.7437115e-07
1.6186378e-06
4.293283e-05
4.1056667e-07
1.473948e-06
4.1700078e-05
3.6023236e-07
1.3442759e-06
4.0582591e-05
3.2035743e-07
1.2282094e-06
3.956742e-05
2.8853739e-07
1.1244154e-06
3.8642881e-05
2.6289068e-07
1.0316467e-06
3.7798527e-05
2.4196984e-07
9.48744e-07
3.7025076e-05
2.2467706e-07
8.7465171e-07
3.6314324e-05
2.10189e-07
8.0840412e-07
3.5659057e-05
1.9788603e-07
7.4911043e-07
3.5052961e-05
1.8731583e-07
6.9597282e-07
3.4490519e-05
1.7814872e-07
6.4827383e-07
3.3966922e-05
1.7013164e-07
6.0537438e-07
3.3477973e-05
1.6306725e-07
5.6670867e-07
3.3020016e-05
1.5680294e-07
5.3177541e-07
3.2589865e-05
1.5122054e-07
5.0013242e-07
3.218474e-05
1.4622562e-07
4.7139139e-07
3.1802215e-05
1.4174074e-07
4.4521235e-07
3.1440168e-05
1.3770094e-07
4.2129809e-07
3.1096739e-05
1.3405096e-07
3.9938921e-07
3.0770297e-05
1.3074294e-07
3.7925953e-07
3.0459402e-05
1.2773518e-07
3.6071196e-07
3.0162787e-05
1.249909e-07
3.4357477e-07
2.9879325e-05
1.2247786e-07
3.2769852e-07
2.960802e-05
1.2016732e-07
3.1295273e-07
2.934798e-05
1.1803379e-07
2.9922352e-07
2.9098408e-05
1.1605464e-07
2.864114e-07
2.885859e-05
1.1420981e-07
2.7442904e-07
2.8627882e-05
1.1248191e-07
2.632e-07
2.8405701e-05
1.108556e-07
2.5265686e-07
2.819152e-05
1.093176e-07
2.4274023e-07
2.7984859e-05
1.0785648e-07
2.3339755e-07
2.7785279e-05
1.064628e-07
2.2458211e-07
2.7592378e-05
1.051287e-07
2.1625211e-07
2.740579e-05
1.0384737e-07
2.0837036e-07
2.7225174e-05
1.0261117e-07
2.009036e-07
2.705022e-05
1.0140748e-07
1.9382256e-07
2.6880641e-05
1.0023384e-07
1.8710043e-07
2.6716166e-05
9.9092332e-08
1.8071226e-07
2.6556546e-05
9.7979996e-08
1.7463556e-07
2.6401548e-05
9.6892544e-08
1.6885012e-07
2.6250957e-05
9.5827114e-08
1.6333742e-07
2.610457e-05
9.4781711e-08
1.5808044e-07
2.5962199e-05
9.3754733e-08
1.5306363e-07
2.5823666e-05
9.2744883e-08
1.4827263e-07
2.5688804e-05
9.1751023e-08
1.4369416e-07
2.5557458e-05
9.0771752e-08
1.3931601e-07
2.5429481e-05
8.980519e-08
1.3512694e-07
2.5304734e-05
8.8851475e-08
1.3111645e-07
2.5183087e-05
8.7911198e-08
1.2727465e-07
2.5064416e-05
8.698392e-08
1.2359243e-07
2.4948604e-05
8.6068939e-08
1.2006121e-07
2.4835542e-05
8.5165817e-08
1.1667304e-07
2.4725124e-05
8.4274343e-08
1.1342047e-07
2.4617252e-05
8.3394301e-08
1.1029654e-07
2.4511832e-05
8.2525516e-08
1.0729477e-07
2.4408775e-05
8.1667778e-08
1.04409e-07
2.4307997e-05
8.082099e-08
1.0163347e-07
2.4209416e-05
7.9985012e-08
9.8962665e-08
2.4112956e-05
7.9159758e-08
9.6391573e-08
2.4018546e-05
7.8345034e-08
9.3915314e-08
2.3926115e-05
7.754071e-08
9.1529332e-08
2.3835598e-05
7.6746543e-08
8.9229241e-08
2.3746933e-05
7.5962326e-08
8.7011051e-08
2.366006e-05
7.5187666e-08
8.4870716e-08
2.3574922e-05
7.4421989e-08
8.2804558e-08
2.3491466e-05
7.3664638e-08
8.080894e-08
2.3409641e-05
7.2914613e-08
7.8880363e-08
2.33294e-05
7.2170698e-08
7.7015485e-08
2.3250698e-05
7.1431316e-08
7.5211031e-08
2.3173493e-05
7.0694854e-08
7.346363e-08
2.3097745e-05
6.9960241e-08
7.1770044e-08
2.3023418e-05
6.9228016e-08
7.0126995e-08
2.2950477e-05
6.8503516e-08
6.8531174e-08
2.2878889e-05
6.7802887e-08
6.6979697e-08
2.2808619e-05
6.7165075e-08
6.5471616e-08
2.2739625e-05
6.6675261e-08
6.4013355e-08
2.267185e-05
6.6507077e-08
6.2642297e-08
2.2605149e-05
6.6990714e-08
6.1532348e-08
2.2538888e-05
6.8686002e-08
6.1499905e-08
2.2471121e-05
7.2226925e-08
6.4845074e-08
7.6722817e-08
9.8461302e-08
0.0001051979
1.3340884e-06
6.4961221e-06
9.9496561e-05
2.3731022e-06
6.6011947e-06
9.4262459e-05
2.9019223e-06
6.1610799e-06
8.9251186e-05
3.0856641e-06
5.9094196e-06
8.4493497e-05
3.0947347e-06
5.6224614e-06
8.0033635e-05
2.9846657e-06
5.2651341e-06
7.5876907e-05
2.7790155e-06
4.8792667e-06
7.2014635e-05
2.5106844e-06
4.4927895e-06
6.8436293e-05
2.2128728e-06
4.1169489e-06
6.5131387e-05
1.9107259e-06
3.7575291e-06
6.208941e-05
1.621732e-06
3.4186596e-06
5.9299432e-05
1.3573877e-06
3.1029661e-06
5.6749589e-05
1.1240344e-06
2.8116387e-06
5.4426788e-05
9.2377949e-07
2.5448158e-06
5.2316754e-05
7.5572797e-07
2.3019466e-06
5.0404313e-05
6.1717855e-07
2.0820302e-06
4.8673788e-05
5.045435e-07
1.8837772e-06
4.7109414e-05
4.1397183e-07
1.7057274e-06
4.5695713e-05
3.4173649e-07
1.5463363e-06
4.4417792e-05
2.8445146e-07
1.4040359e-06
4.3261575e-05
2.3917116e-07
1.2772781e-06
4.2213952e-05
2.0341506e-07
1.1645652e-06
4.1262871e-05
1.7514744e-07
1.0644719e-06
4.039737e-05
1.5273234e-07
9.7565897e-07
3.9607583e-05
1.3487531e-07
8.9688143e-07
3.8884688e-05
1.2055566e-07
8.2701638e-07
3.8220848e-05
1.0901089e-07
7.6501855e-07
3.7609155e-05
9.9633827e-08
7.0994488e-07
3.7043542e-05
9.1977448e-08
6.6095087e-07
3.6518702e-05
8.5705791e-08
6.1728288e-07
3.6030009e-05
8.0552378e-08
5.7827311e-07
3.5573433e-05
7.6308253e-08
5.4333414e-07
3.5145475e-05
7.2811236e-08
5.1195027e-07
3.4743091e-05
6.9934127e-08
4.8367024e-07
3.4363641e-05
6.7575455e-08
4.5810066e-07
3.4004828e-05
6.5652888e-08
4.3489996e-07
3.3664659e-05
6.4098575e-08
4.1377212e-07
3.3341393e-05
6.2855915e-08
3.9446095e-07
3.3033513e-05
6.1877001e-08
3.7674526e-07
3.2739693e-05
6.1121111e-08
3.6043426e-07
3.2458768e-05
6.055307e-08
3.4536327e-07
3.2189712e-05
6.0142702e-08
3.3139054e-07
3.1931622e-05
5.9863677e-08
3.1839377e-07
3.1683696e-05
5.9693175e-08
3.0626737e-07
3.1445219e-05
5.9611227e-08
2.9492013e-07
3.1215555e-05
5.9600639e-08
2.8427316e-07
3.0994132e-05
5.9646551e-08
2.7425806e-07
3.0780436e-05
5.9736189e-08
2.6481539e-07
3.0574002e-05
5.98587e-08
2.5589335e-07
3.0374407e-05
6.0004966e-08
2.4744662e-07
3.0181267e-05
6.0167666e-08
2.3943548e-07
2.9994229e-05
6.0341271e-08
2.3182486e-07
2.9812971e-05
6.0521833e-08
2.2458373e-07
2.9637193e-05
6.0704474e-08
2.1768455e-07
2.9466629e-05
6.0867263e-08
2.1110457e-07
2.9301024e-05
6.1016991e-08
2.0482181e-07
2.914014e-05
6.1160866e-08
1.9881571e-07
2.8983756e-05
6.1294943e-08
1.9306839e-07
2.8831669e-05
6.1415473e-08
1.8756386e-07
2.8683688e-05
6.1520955e-08
1.8228762e-07
2.8539633e-05
6.1610562e-08
1.7722635e-07
2.8399336e-05
6.1683771e-08
1.7236785e-07
2.8262639e-05
6.1740478e-08
1.6770093e-07
2.8129394e-05
6.1780668e-08
1.6321521e-07
2.7999461e-05
6.1803868e-08
1.5890123e-07
2.7872709e-05
6.180736e-08
1.5475036e-07
2.7749012e-05
6.1793568e-08
1.5075443e-07
2.7628253e-05
6.1764843e-08
1.4690558e-07
2.7510319e-05
6.1721064e-08
1.4319664e-07
2.7395105e-05
6.1662158e-08
1.3962086e-07
2.728251e-05
6.1588653e-08
1.3617202e-07
2.7172439e-05
6.150107e-08
1.3284422e-07
2.7064802e-05
6.1399996e-08
1.2963189e-07
2.6959511e-05
6.1285967e-08
1.2652991e-07
2.6856486e-05
6.1159511e-08
1.2353325e-07
2.6755649e-05
6.1021322e-08
1.2063732e-07
2.6656924e-05
6.0871863e-08
1.1783766e-07
2.6560242e-05
6.0711739e-08
1.1513013e-07
2.6465535e-05
6.0541395e-08
1.1251076e-07
2.6372738e-05
6.0361328e-08
1.0997577e-07
2.6281791e-05
6.0171935e-08
1.0752157e-07
2.6192636e-05
5.997353e-08
1.051447e-07
2.6105215e-05
5.9766314e-08
1.0284181e-07
2.6019477e-05
5.9550272e-08
1.0060973e-07
2.5935371e-05
5.9325187e-08
9.8445293e-08
2.585285e-05
5.9090499e-08
9.6345376e-08
2.5771868e-05
5.8845478e-08
9.4306915e-08
2.5692384e-05
5.8588978e-08
9.2326751e-08
2.5614357e-05
5.8319808e-08
9.0401419e-08
2.5537753e-05
5.8037052e-08
8.8527281e-08
2.5462539e-05
5.7741618e-08
8.6700194e-08
2.5388689e-05
5.7438398e-08
8.4915125e-08
2.5316184e-05
5.7141444e-08
8.3166609e-08
2.5245017e-05
5.688258e-08
8.1449622e-08
2.51752e-05
5.6726016e-08
7.976581e-08
2.510677e-05
5.6787909e-08
7.8149184e-08
2.5039729e-05
5.7251569e-08
7.6780966e-08
2.4973573e-05
5.8330911e-08
7.6510211e-08
2.4906079e-05
5.9989465e-08
7.9732158e-08
6.0715009e-08
1.1287824e-07
0.00010503672
9.0789371e-07
6.5005614e-06
9.9140653e-05
1.6524914e-06
6.6166802e-06
9.3788329e-05
2.0825241e-06
6.1717217e-06
8.8708526e-05
2.2549373e-06
5.91053e-06
8.3909682e-05
2.278404e-06
5.6151748e-06
7.9437109e-05
2.2074821e-06
5.2497564e-06
7.5296201e-05
2.0645348e-06
4.8553893e-06
7.1474034e-05
1.8722543e-06
4.4605969e-06
6.7955013e-05
1.6547667e-06
4.0771269e-06
6.4723621e-05
1.4313505e-06
3.7107669e-06
6.1764423e-05
1.2154297e-06
3.3655007e-06
5.9062056e-05
1.015864e-06
3.0438912e-06
5.6601108e-05
8.3782743e-07
2.7471548e-06
5.4365944e-05
6.8344647e-07
2.475497e-06
5.2340648e-05
5.5258526e-07
2.2284383e-06
5.0509125e-05
4.4366549e-07
2.0050361e-06
4.8855299e-05
3.5433457e-07
1.8040352e-06
4.7363353e-05
2.8193587e-07
1.6239821e-06
4.6017963e-05
2.2381343e-07
1.4633127e-06
4.4804502e-05
1.7749381e-07
1.3204181e-06
4.3709199e-05
1.407809e-07
1.1936935e-06
4.2719248e-05
1.1179157e-07
1.081575e-06
4.1822875e-05
8.8954523e-08
9.8256581e-07
4.1009364e-05
7.098797e-08
8.9525471e-07
4.0269054e-05
5.6861795e-08
8.1832381e-07
3.9593306e-05
4.5719134e-08
7.5058475e-07
3.8974405e-05
3.6977855e-08
6.9093437e-07
3.8405585e-05
3.006738e-08
6.383863e-07
3.7880869e-05
2.4650858e-08
5.9204239e-07
3.7395029e-05
2.0440006e-08
5.5110609e-07
3.6943514e-05
1.7190293e-08
5.1487715e-07
3.6522366e-05
1.4716725e-08
4.8273959e-07
3.6128148e-05
1.2874752e-08
4.541539e-07
3.5757883e-05
1.1549892e-08
4.2864945e-07
3.5408991e-05
1.0650744e-08
4.0581705e-07
3.5079238e-05
1.0103607e-08
3.8530232e-07
3.4766689e-05
9.8482412e-09
3.6679881e-07
3.4469668e-05
9.835077e-09
3.5004236e-07
3.4186716e-05
1.0022928e-08
3.3480552e-07
3.3916567e-05
1.0377044e-08
3.2089288e-07
3.3658116e-05
1.0868096e-08
3.0813656e-07
3.3410395e-05
1.1470984e-08
2.9639283e-07
3.3172556e-05
1.2164256e-08
2.8553828e-07
3.2943852e-05
1.2929296e-08
2.7546718e-07
3.2723625e-05
1.3750159e-08
2.6608895e-07
3.2511286e-05
1.4613094e-08
2.573257e-07
3.2306316e-05
1.5506284e-08
2.4911067e-07
3.2108246e-05
1.6419602e-08
2.4138622e-07
3.1916658e-05
1.734463e-08
2.341027e-07
3.1731171e-05
1.8274324e-08
2.2721711e-07
3.1551444e-05
1.920317e-08
2.2069214e-07
3.1377162e-05
2.0127741e-08
2.1449506e-07
3.1208038e-05
2.104865e-08
2.0859679e-07
3.10438e-05
2.1972797e-08
2.0297053e-07
3.0884232e-05
2.2827873e-08
1.9760737e-07
3.0729103e-05
2.3663006e-08
1.9248231e-07
3.05782e-05
2.4490002e-08
1.8757382e-07
3.0431331e-05
2.5296306e-08
1.8286762e-07
3.0288318e-05
2.6078001e-08
1.7835077e-07
3.0148994e-05
2.6834291e-08
1.7401108e-07
3.0013202e-05
2.7564667e-08
1.6983754e-07
2.9880797e-05
2.8268963e-08
1.6582024e-07
2.975164e-05
2.8947397e-08
1.6195012e-07
2.96256e-05
2.9600746e-08
1.5821894e-07
2.9502557e-05
3.0228544e-08
1.5461918e-07
2.9382396e-05
3.0823575e-08
1.5114464e-07
2.9265007e-05
3.1393137e-08
1.4778879e-07
2.9150287e-05
3.1939584e-08
1.4454537e-07
2.9038137e-05
3.2461885e-08
1.41409e-07
2.8928465e-05
3.2960086e-08
1.3837462e-07
2.8821181e-05
3.343471e-08
1.3543748e-07
2.8716203e-05
3.3886383e-08
1.3259328e-07
2.8613449e-05
3.4315588e-08
1.2983788e-07
2.8512845e-05
3.4722877e-08
1.2716736e-07
2.8414317e-05
3.5108956e-08
1.2457817e-07
2.8317797e-05
3.5474476e-08
1.2206685e-07
2.8223219e-05
3.581992e-08
1.1963008e-07
2.813052e-05
3.6145932e-08
1.1726493e-07
2.803964e-05
3.6453065e-08
1.1496839e-07
2.7950522e-05
3.6741883e-08
1.1273774e-07
2.7863111e-05
3.7012805e-08
1.1057029e-07
2.7777354e-05
3.7266265e-08
1.0846344e-07
2.7693204e-05
3.7502493e-08
1.0641475e-07
2.7610611e-05
3.7721601e-08
1.0442171e-07
2.752953e-05
3.792354e-08
1.0248198e-07
2.744992e-05
3.810801e-08
1.0059304e-07
2.7371738e-05
3.8274286e-08
9.8752303e-08
2.7294949e-05
3.842155e-08
9.6956906e-08
2.7219516e-05
3.8548723e-08
9.5203636e-08
2.714541e-05
3.8655089e-08
9.3488584e-08
2.7072603e-05
3.8741137e-08
9.1806929e-08
2.7001079e-05
3.8810265e-08
9.0152305e-08
2.6930832e-05
3.8872123e-08
8.8516548e-08
2.6861876e-05
3.8947413e-08
8.6890519e-08
2.679426e-05
3.9073531e-08
8.5269158e-08
2.6728065e-05
3.930695e-08
8.3675911e-08
2.6663337e-05
3.9708343e-08
8.227115e-08
2.659956e-05
4.0271985e-08
8.183618e-08
2.6534295e-05
4.0698035e-08
8.4555726e-08
3.9620853e-08
1.1507129e-07
0.00010494757
5.681108e-07
6.5033076e-06
9.8925416e-05
1.0462983e-06
6.6283516e-06
9.3480449e-05
1.3439844e-06
6.1835065e-06
8.8341777e-05
1.4751324e-06
5.9184763e-06
8.3502084e-05
1.4993911e-06
5.6187065e-06
7.9004057e-05
1.4572411e-06
5.2482679e-06
7.4853978e-05
1.3667382e-06
4.8478757e-06
7.1037378e-05
1.2423973e-06
4.4464569e-06
6.7536062e-05
1.0997693e-06
4.0563127e-06
6.4331998e-05
9.519236e-07
3.683491e-06
6.1407318e-05
8.0805757e-07
3.3320524e-06
5.8744339e-05
6.7422202e-07
3.0046209e-06
5.6325632e-05
5.5404398e-07
2.7024907e-06
5.4133973e-05
4.4916747e-07
2.4259383e-06
5.2152298e-05
3.5972398e-07
2.174536e-06
5.0363747e-05
2.8484511e-07
1.9473718e-06
4.875178e-05
2.2310005e-07
1.7432015e-06
4.7300339e-05
1.7281167e-07
1.5605647e-06
4.5994012e-05
1.3226571e-07
1.3978748e-06
4.4818177e-05
9.9840035e-08
1.2534891e-06
4.3759121e-05
7.4075604e-08
1.1257614e-06
4.2804123e-05
5.3707657e-08
1.0130814e-06
4.1941503e-05
3.7671257e-08
9.1390377e-07
4.1160627e-05
2.5096488e-08
8.2676732e-07
4.0451891e-05
1.5294199e-08
7.503039e-07
3.980679e-05
7.5281769e-09
6.8329174e-07
3.9217543e-05
1.6727771e-09
6.2455201e-07
3.8677513e-05
-3.0331458e-09
5.7313083e-07
3.8180739e-05
-6.6486801e-09
5.2807354e-07
3.7722004e-05
-9.3595139e-09
4.885345e-07
3.7296777e-05
-1.1371808e-08
4.5378927e-07
3.6901112e-05
-1.2818233e-08
4.2319912e-07
3.6531588e-05
-1.3805327e-08
3.9620481e-07
3.6185236e-05
-1.44175e-08
3.7231876e-07
3.5859491e-05
-1.4721896e-08
3.5111777e-07
3.5552132e-05
-1.4772649e-08
3.322358e-07
3.5261237e-05
-1.4613932e-08
3.1535729e-07
3.4985143e-05
-1.4282166e-08
3.0021092e-07
3.472241e-05
-1.3807679e-08
2.8656376e-07
3.4471787e-05
-1.3215858e-08
2.7421631e-07
3.4232185e-05
-1.2528157e-08
2.6299768e-07
3.4002657e-05
-1.1762797e-08
2.5276172e-07
3.3782373e-05
-1.0935217e-08
2.4338337e-07
3.3570606e-05
-1.0058756e-08
2.3475556e-07
3.3366714e-05
-9.1447173e-09
2.2678675e-07
3.3170132e-05
-8.2028016e-09
2.1939832e-07
3.2980356e-05
-7.2412313e-09
2.1252299e-07
3.279694e-05
-6.2669027e-09
2.0610285e-07
3.2619482e-05
-5.2855634e-09
2.0008786e-07
3.2447623e-05
-4.301836e-09
1.9443476e-07
3.228104e-05
-3.3190463e-09
1.8910585e-07
3.2119438e-05
-2.3383231e-09
1.8406732e-07
3.1962554e-05
-1.3530423e-09
1.7928647e-07
3.1810075e-05
-2.7632543e-10
1.7472764e-07
3.1661878e-05
5.8583983e-10
1.7043903e-07
3.1517732e-05
1.4355925e-09
1.6637294e-07
3.1377429e-05
2.3038534e-09
1.624896e-07
3.1240792e-05
3.1586495e-09
1.5877486e-07
3.1107656e-05
3.9970075e-09
1.5521719e-07
3.0977867e-05
4.8171625e-09
1.5180545e-07
3.0851284e-05
5.617953e-09
1.4852967e-07
3.0727774e-05
6.3990505e-09
1.4538079e-07
3.0607209e-05
7.1609136e-09
1.4235052e-07
3.0489473e-05
7.9059099e-09
1.394312e-07
3.037445e-05
8.6357236e-09
1.3661579e-07
3.0262049e-05
9.3206577e-09
1.3390399e-07
3.0152163e-05
9.9938194e-09
1.3128568e-07
3.0044697e-05
1.06504e-08
1.2875514e-07
2.9939564e-05
1.1286741e-08
1.263083e-07
2.983668e-05
1.1903199e-08
1.2394088e-07
2.9735965e-05
1.250018e-08
1.2164885e-07
2.9637345e-05
1.3077918e-08
1.1942841e-07
2.9540748e-05
1.3636692e-08
1.1727614e-07
2.9446105e-05
1.4177009e-08
1.1518881e-07
2.9353352e-05
1.4699174e-08
1.1316338e-07
2.9262425e-05
1.5203528e-08
1.1119703e-07
2.9173268e-05
1.5690487e-08
1.0928708e-07
2.9085822e-05
1.6160373e-08
1.0743106e-07
2.9000035e-05
1.6613604e-08
1.0562664e-07
2.8915855e-05
1.705042e-08
1.0387154e-07
2.8833233e-05
1.7471139e-08
1.0216363e-07
2.8752123e-05
1.7875955e-08
1.0050082e-07
2.8672479e-05
1.826506e-08
9.8881101e-08
2.8594259e-05
1.8638531e-08
9.7302489e-08
2.8517424e-05
1.8996225e-08
9.576295e-08
2.8441934e-05
1.9337807e-08
9.4260342e-08
2.8367753e-05
1.9662781e-08
9.2792347e-08
2.8294848e-05
1.9970459e-08
9.1356257e-08
2.8223187e-05
2.0259988e-08
8.9948868e-08
2.8152746e-05
2.0530675e-08
8.8565923e-08
2.8083503e-05
2.0782582e-08
8.7201807e-08
2.8015447e-05
2.10175e-08
8.5848694e-08
2.7948582e-05
2.1240704e-08
8.4495846e-08
2.7882937e-05
2.1462719e-08
8.3129491e-08
2.7818574e-05
2.169997e-08
8.1736493e-08
2.7755588e-05
2.196929e-08
8.0324366e-08
2.7694014e-05
2.2266171e-08
7.9016054e-08
2.7633299e-05
2.250628e-08
7.8480646e-08
2.7571004e-05
2.2393394e-08
8.059949e-08
2.0993054e-08
1.0779943e-07
0.00010489986
2.7443376e-07
6.5049155e-06
9.8802772e-05
5.0716634e-07
6.6362236e-06
9.329591e-05
6.5854974e-07
6.1922972e-06
8.8116302e-05
7.2902545e-07
5.9257148e-06
8.3248198e-05
7.4378812e-07