/*--------------------------------*- C++ -*----------------------------------*\
  =========                 |
  \\      /  F ield         | OpenFOAM: The Open Source CFD Toolbox
   \\    /   O peration     | Website:  https://openfoam.org
    \\  /    A nd           | Version:  7
     \\/     M anipulation  |
\*---------------------------------------------------------------------------*/
FoamFile
{
    version     2.0;
    format      ascii;
    class       surfaceScalarField;
    location    "1500/water";
    object      phi;
}
// * * * * * * * * * * * * * * * * * * * * * * * * * * * * * * * * * * * * * //

dimensions      [1 0 -1 0 0 0 0];

internalField   nonuniform List<scalar> 
156660
(
9.9057239e-05
6.0010402e-06
6.0528092e-06
8.6847498e-05
6.0555113e-06
6.1542307e-06
7.5687891e-05
5.5111363e-06
5.6484701e-06
6.5441704e-05
5.0404181e-06
5.205769e-06
5.6267661e-05
4.4956436e-06
4.6783992e-06
4.8318019e-05
3.8797648e-06
4.0698777e-06
4.1624776e-05
3.2524448e-06
3.4407981e-06
3.6124897e-05
2.660462e-06
2.839417e-06
3.1692235e-05
2.1345126e-06
2.2981489e-06
2.8162841e-05
1.6926975e-06
1.8366964e-06
2.5361437e-05
1.3399933e-06
1.4614113e-06
2.3124664e-05
1.0698477e-06
1.1669256e-06
2.1315127e-05
8.6875421e-07
9.4078226e-07
1.9825714e-05
7.2110062e-07
7.6831274e-07
1.8577278e-05
6.1248247e-07
6.3595308e-07
1.7513255e-05
5.3125221e-07
5.3277152e-07
1.6593744e-05
4.6879725e-07
4.5071349e-07
1.5790433e-05
4.1913716e-07
3.8417388e-07
1.5082784e-05
3.782907e-07
3.293585e-07
1.4455417e-05
3.4367127e-07
2.8369564e-07
1.3896409e-05
3.1361409e-07
2.4539334e-07
1.339622e-05
2.8704451e-07
2.1314453e-07
1.2947015e-05
2.6326033e-07
1.8594512e-07
1.2542237e-05
2.4179366e-07
1.6298461e-07
1.2176318e-05
2.2232207e-07
1.4359689e-07
1.1844484e-05
2.046148e-07
1.2721883e-07
1.1542609e-05
1.8849492e-07
1.1337974e-07
1.1267116e-05
1.7381573e-07
1.0167793e-07
1.1014892e-05
1.6046271e-07
9.1760817e-08
1.0783252e-05
1.4833966e-07
8.3300603e-08
1.0569851e-05
1.3734905e-07
7.6052131e-08
1.0372614e-05
1.2738861e-07
6.9848307e-08
1.0189731e-05
1.1836808e-07
6.4514813e-08
1.001963e-05
1.1020447e-07
5.9896624e-08
9.8609388e-06
1.0281922e-07
5.587166e-08
9.7124594e-06
9.6137957e-08
5.2341387e-08
9.5731439e-06
9.0091186e-08
4.9224356e-08
9.4420759e-06
8.4614466e-08
4.6453582e-08
9.3184531e-06
7.9648651e-08
4.3974121e-08
9.2015723e-06
7.5139737e-08
4.174106e-08
9.0908166e-06
7.1038159e-08
3.9717571e-08
8.9856432e-06
6.7301124e-08
3.7872302e-08
8.8855708e-06
6.389425e-08
3.6178174e-08
8.7901757e-06
6.0780092e-08
3.4614948e-08
8.6990829e-06
5.7926152e-08
3.3166662e-08
8.611959e-06
5.5303731e-08
3.1820109e-08
8.5285072e-06
5.2887438e-08
3.0564401e-08
8.4484619e-06
5.0655068e-08
2.9390273e-08
8.3715848e-06
4.8587046e-08
2.8290027e-08
8.2976614e-06
4.6666171e-08
2.7257199e-08
8.2264975e-06
4.4877473e-08
2.6286423e-08
8.1579202e-06
4.3208809e-08
2.5368519e-08
8.0917731e-06
4.164905e-08
2.449803e-08
8.0279108e-06
4.018698e-08
2.3675351e-08
7.9662006e-06
3.8812665e-08
2.2897559e-08
7.9065219e-06
3.7518399e-08
2.2160228e-08
7.8487639e-06
3.6297871e-08
2.1460144e-08
7.7928242e-06
3.5145148e-08
2.0794594e-08
7.7386084e-06
3.4054653e-08
2.0161165e-08
7.6860293e-06
3.3021341e-08
1.9557676e-08
7.6350062e-06
3.2040786e-08
1.8982266e-08
7.5854641e-06
3.1109074e-08
1.8433083e-08
7.537333e-06
3.0222604e-08
1.7908497e-08
7.4905478e-06
2.9378248e-08
1.7406989e-08
7.4450476e-06
2.8573005e-08
1.6927188e-08
7.4007756e-06
2.7804199e-08
1.6467773e-08
7.3576783e-06
2.70696e-08
1.6027666e-08
7.3157057e-06
2.6367053e-08
1.5605626e-08
7.2748103e-06
2.5694644e-08
1.5200686e-08
7.2349479e-06
2.5050564e-08
1.4811836e-08
7.1960767e-06
2.4433104e-08
1.4438192e-08
7.158157e-06
2.3840689e-08
1.4078918e-08
7.1211518e-06
2.3271904e-08
1.3733288e-08
7.0850258e-06
2.2725512e-08
1.3400532e-08
7.0497457e-06
2.2200219e-08
1.3079942e-08
7.0152798e-06
2.1694903e-08
1.2770883e-08
6.9815985e-06
2.1208609e-08
1.2472777e-08
6.9486733e-06
2.0740244e-08
1.2184932e-08
6.9164776e-06
2.0288984e-08
1.1906818e-08
6.8849858e-06
1.985395e-08
1.1637868e-08
6.8541739e-06
1.9434358e-08
1.1377441e-08
6.8240193e-06
1.9029421e-08
1.1125117e-08
6.7945006e-06
1.8638475e-08
1.0880252e-08
6.7655975e-06
1.8260759e-08
1.0642323e-08
6.7372912e-06
1.7895556e-08
1.0410739e-08
6.709564e-06
1.7542114e-08
1.0185116e-08
6.6823995e-06
1.719962e-08
9.9648711e-09
6.6557824e-06
1.6867293e-08
9.7498346e-09
6.6296983e-06
1.6544116e-08
9.5400001e-09
6.6041331e-06
1.6229271e-08
9.3359861e-09
6.5790714e-06
1.5921962e-08
9.1396701e-09
6.554494e-06
1.562233e-08
8.9550876e-09
6.5303708e-06
1.5332546e-08
8.79063e-09
6.5066467e-06
1.5060475e-08
8.6635916e-09
6.4832094e-06
1.4827831e-08
8.6095156e-09
6.4598103e-06
1.4693084e-08
8.7060048e-09
6.4358388e-06
1.4826435e-08
9.1451257e-09
6.4096303e-06
1.5741781e-08
1.0466721e-08
6.3782855e-06
1.802658e-08
1.3318201e-08
3.2300204e-08
2.7923564e-08
0.00010646494
4.1872385e-06
6.4599816e-06
0.0001002019
5.695418e-06
6.6231353e-06
9.3659588e-05
5.7790389e-06
6.2744098e-06
8.7011589e-05
5.6514782e-06
6.0369387e-06
8.0422927e-05
5.366912e-06
5.7173941e-06
7.4094022e-05
4.9022832e-06
5.3063862e-06
6.8167026e-05
4.3278135e-06
4.8516272e-06
6.2722565e-05
3.717891e-06
4.387032e-06
5.7799049e-05
3.1243144e-06
3.9337144e-06
5.3403345e-05
2.5820689e-06
3.5063328e-06
4.9517402e-05
2.1121062e-06
3.1138299e-06
4.6105483e-05
1.7220197e-06
2.7597473e-06
4.3121558e-05
1.4089355e-06
2.4437429e-06
4.0515558e-05
1.1637552e-06
2.163346e-06
3.8237948e-05
9.7485848e-07
1.9152336e-06
3.6242683e-05
8.3055974e-07
1.6959573e-06
3.4488759e-05
7.2043697e-07
1.5022849e-06
3.2940716e-05
6.3586294e-07
1.3313172e-06
3.1568463e-05
5.7005006e-07
1.1804931e-06
3.0346733e-05
5.1784898e-07
1.0475522e-06
2.9254398e-05
4.7545954e-07
9.3049034e-07
2.8273782e-05
4.4013956e-07
8.2752024e-07
2.7390054e-05
4.0994895e-07
7.370401e-07
2.6590699e-05
3.8353953e-07
6.5760859e-07
2.5865102e-05
3.5998888e-07
5.8793073e-07
2.5204197e-05
3.386763e-07
5.2684263e-07
2.4600205e-05
3.1918358e-07
4.7330348e-07
2.4046429e-05
3.0120191e-07
4.2639017e-07
2.3537073e-05
2.8455205e-07
3.8526714e-07
2.3067119e-05
2.6911099e-07
3.491824e-07
2.2632208e-05
2.5478166e-07
3.1747786e-07
2.2228528e-05
2.4147382e-07
2.8959532e-07
2.1852744e-05
2.2911072e-07
2.6504123e-07
2.1501947e-05
2.1762893e-07
2.4337258e-07
2.1173591e-05
2.0696949e-07
2.242057e-07
2.0865444e-05
1.9707569e-07
2.0720868e-07
2.0575549e-05
1.8789256e-07
1.92094e-07
2.0302183e-05
1.7936726e-07
1.7861345e-07
2.0043829e-05
1.7144909e-07
1.6655323e-07
1.979915e-05
1.6408982e-07
1.5572941e-07
1.956696e-05
1.572438e-07
1.4598401e-07
1.934621e-05
1.5086896e-07
1.3718218e-07
1.9135969e-05
1.4492654e-07
1.2920883e-07
1.8935407e-05
1.3937906e-07
1.2196309e-07
1.8743783e-05
1.341923e-07
1.1535764e-07
1.8560435e-05
1.2933508e-07
1.0931727e-07
1.8384766e-05
1.2477907e-07
1.0377716e-07
1.8216241e-05
1.2049852e-07
9.8681297e-08
1.8054377e-05
1.164701e-07
9.3981306e-08
1.7898734e-05
1.1267291e-07
8.9635414e-08
1.7748917e-05
1.090882e-07
8.5607001e-08
1.7604563e-05
1.0570006e-07
8.1862427e-08
1.7465345e-05
1.0249342e-07
7.8373266e-08
1.7330962e-05
9.9452976e-08
7.5116968e-08
1.7201138e-05
9.6564416e-08
7.2072728e-08
1.7075619e-05
9.381664e-08
6.9221148e-08
1.695417e-05
9.1201082e-08
6.6545115e-08
1.6836577e-05
8.8709111e-08
6.4029536e-08
1.6722638e-05
8.6331952e-08
6.1661067e-08
1.661217e-05
8.4061769e-08
5.9427673e-08
1.6505001e-05
8.1891529e-08
5.7318856e-08
1.640097e-05
7.9814921e-08
5.5324834e-08
1.6299929e-05
7.7826154e-08
5.3437141e-08
1.620174e-05
7.5919881e-08
5.1647927e-08
1.6106272e-05
7.4091039e-08
4.995012e-08
1.6013404e-05
7.233499e-08
4.833739e-08
1.5923022e-05
7.0647746e-08
4.6803887e-08
1.5835019e-05
6.9025727e-08
4.5344269e-08
1.5749294e-05
6.7465544e-08
4.3953711e-08
1.5665753e-05
6.5963793e-08
4.2627688e-08
1.5584307e-05
6.4517347e-08
4.1362163e-08
1.5504871e-05
6.3123409e-08
4.0153359e-08
1.5427366e-05
6.1779298e-08
3.899781e-08
1.5351716e-05
6.0482528e-08
3.7892288e-08
1.5277852e-05
5.9230842e-08
3.6833857e-08
1.5205705e-05
5.8022037e-08
3.5819731e-08
1.5135212e-05
5.6854022e-08
3.4847375e-08
1.5066313e-05
5.5724994e-08
3.3914343e-08
1.499895e-05
5.4633128e-08
3.3018429e-08
1.493307e-05
5.3576751e-08
3.2157441e-08
1.4868621e-05
5.2554173e-08
3.1329434e-08
1.4805554e-05
5.1563939e-08
3.0532462e-08
1.4743823e-05
5.0604488e-08
2.9764687e-08
1.4683386e-05
4.9674264e-08
2.9024389e-08
1.4624199e-05
4.8771825e-08
2.8309879e-08
1.4566226e-05
4.7895447e-08
2.7619571e-08
1.4509431e-05
4.7043491e-08
2.6952009e-08
1.4453778e-05
4.6214107e-08
2.6305752e-08
1.4399237e-05
4.5405392e-08
2.567987e-08
1.4345777e-05
4.4615712e-08
2.5073761e-08
1.4293367e-05
4.3844257e-08
2.4487702e-08
1.4241972e-05
4.3092867e-08
2.3923724e-08
1.4191548e-05
4.2369927e-08
2.3387134e-08
1.4142019e-05
4.1699317e-08
2.2889616e-08
1.4093249e-05
4.1141625e-08
2.2456603e-08
1.4044951e-05
4.084464e-08
2.2146555e-08
1.3996485e-05
4.1169173e-08
2.2123038e-08
1.3946229e-05
4.3012297e-08
2.2985373e-08
1.389015e-05
4.854024e-08
2.556579e-08
6.3281551e-08
5.0000852e-08
0.00010603565
2.7876425e-06
6.4750379e-06
0.00010074799
4.4145413e-06
6.5685292e-06
9.5493515e-05
4.8594028e-06
6.1741158e-06
9.0256432e-05
4.930369e-06
5.9581921e-06
8.5101366e-05
4.8311767e-06
5.6908012e-06
8.0102875e-05
4.5561761e-06
5.3445981e-06
7.5322251e-05
4.1469521e-06
4.9614853e-06
7.0803266e-05
3.6678926e-06
4.5689837e-06
6.6576264e-05
3.1701903e-06
4.1811255e-06
6.2660725e-05
2.690011e-06
3.8075976e-06
5.9065443e-05
2.2519319e-06
3.4554566e-06
5.5788936e-05
1.8697304e-06
3.1287957e-06
5.2820978e-05
1.5477473e-06
2.8291458e-06
5.014479e-05
1.2836302e-06
2.5563139e-06
4.7739304e-05
1.07123e-06
2.3091141e-06
4.5581183e-05
9.0281504e-07
2.0858661e-06
4.3646423e-05
7.7048779e-07
1.884709e-06
4.1911533e-05
6.6697371e-07
1.7037793e-06
4.0354306e-05
5.8598199e-07
1.541295e-06
3.8954268e-05
5.2230223e-07
1.3955849e-06
3.769288e-05
4.7175607e-07
1.265091e-06
3.6553576e-05
4.3107984e-07
1.1483634e-06
3.552169e-05
3.9778204e-07
1.0440533e-06
3.4584322e-05
3.6999882e-07
9.5090828e-07
3.3730181e-05
3.463598e-07
8.6777016e-07
3.2949411e-05
3.2587761e-07
7.9356874e-07
3.2233419e-05
3.0784047e-07
7.2733489e-07
3.157471e-05
2.9172984e-07
6.6818106e-07
3.0966769e-05
2.7719263e-07
6.1530129e-07
3.0403928e-05
2.63981e-07
5.6797022e-07
2.9881258e-05
2.5190844e-07
5.2554315e-07
2.9394455e-05
2.4082712e-07
4.8745002e-07
2.8939761e-05
2.3062157e-07
4.5318329e-07
2.8513895e-05
2.2120151e-07
4.2229387e-07
2.8113985e-05
2.1249193e-07
3.9438674e-07
2.7737518e-05
2.0442798e-07
3.6911488e-07
2.7382285e-05
1.9695194e-07
3.4617382e-07
2.7046344e-05
1.9001178e-07
3.252968e-07
2.6727982e-05
1.8355994e-07
3.0625044e-07
2.6425689e-05
1.7755274e-07
2.8883084e-07
2.6138123e-05
1.7195004e-07
2.7285985e-07
2.5864094e-05
1.6671516e-07
2.5818185e-07
2.5602546e-05
1.6181452e-07
2.4466092e-07
2.535253e-05
1.5721705e-07
2.3217767e-07
2.5113201e-05
1.5289443e-07
2.2062729e-07
2.4883797e-05
1.4882096e-07
2.0991773e-07
2.4663634e-05
1.4497364e-07
1.9996811e-07
2.4452094e-05
1.4133183e-07
1.9070707e-07
2.4248615e-05
1.3787696e-07
1.8207153e-07
2.405269e-05
1.3459264e-07
1.7400572e-07
2.3863854e-05
1.3146461e-07
1.6645993e-07
2.3681684e-05
1.2848057e-07
1.5938925e-07
2.3505794e-05
1.2562918e-07
1.527541e-07
2.3335829e-05
1.2289869e-07
1.465197e-07
2.3171462e-05
1.2027638e-07
1.4065462e-07
2.3012394e-05
1.1775473e-07
1.3513022e-07
2.2858345e-05
1.1532971e-07
1.2992044e-07
2.2709057e-05
1.129954e-07
1.2500173e-07
2.2564291e-05
1.1074515e-07
1.203529e-07
2.2423824e-05
1.0857345e-07
1.159546e-07
2.2287451e-05
1.0647547e-07
1.1178926e-07
2.2154978e-05
1.0444699e-07
1.0784083e-07
2.2026226e-05
1.024842e-07
1.040946e-07
2.1901025e-05
1.005835e-07
1.0053714e-07
2.1779218e-05
9.8741526e-08
9.7156154e-08
2.1660658e-05
9.6954908e-08
9.3940289e-08
2.1545205e-05
9.5221256e-08
9.0879075e-08
2.1432729e-05
9.3538817e-08
8.796281e-08
2.1323107e-05
9.1905315e-08
8.5182597e-08
2.1216222e-05
9.0318532e-08
8.253019e-08
2.1111965e-05
8.8776402e-08
7.9997893e-08
2.1010233e-05
8.727711e-08
7.7578639e-08
2.0910927e-05
8.5818933e-08
7.5265863e-08
2.0813956e-05
8.4400328e-08
7.3053423e-08
2.0719232e-05
8.3019672e-08
7.0935654e-08
2.0626671e-05
8.1675655e-08
6.8907207e-08
2.0536195e-05
8.0366829e-08
6.6963145e-08
2.0447729e-05
7.9091999e-08
6.5098775e-08
2.0361203e-05
7.7849856e-08
6.3309757e-08
2.0276548e-05
7.6639237e-08
6.1592028e-08
2.0193702e-05
7.5458989e-08
5.9941745e-08
2.0112602e-05
7.4307945e-08
5.8355236e-08
2.0033193e-05
7.3184948e-08
5.6829076e-08
1.9955419e-05
7.2088582e-08
5.5359977e-08
1.9879228e-05
7.1017576e-08
5.3944833e-08
1.9804572e-05
6.9970437e-08
5.2580706e-08
1.9731406e-05
6.8945244e-08
5.1264819e-08
1.9659685e-05
6.7940135e-08
4.9994384e-08
1.9589371e-05
6.6953041e-08
4.8767025e-08
1.9520423e-05
6.5982356e-08
4.7580518e-08
1.9452807e-05
6.5028038e-08
4.6433095e-08
1.9386482e-05
6.4094106e-08
4.5323743e-08
1.9321404e-05
6.3194726e-08
4.4253069e-08
1.9257511e-05
6.2366346e-08
4.3225229e-08
1.9194705e-05
6.1695176e-08
4.2253131e-08
1.9132798e-05
6.1374083e-08
4.1377432e-08
1.9071394e-05
6.1822391e-08
4.0750655e-08
1.9009424e-05
6.3924716e-08
4.1057596e-08
1.8944661e-05
6.9304684e-08
4.3998834e-08
7.9170947e-08
7.4661576e-08
0.0001054937
1.9169871e-06
6.4880406e-06
0.00010005365
3.2729596e-06
6.5816334e-06
9.4926077e-05
3.8288995e-06
6.1580776e-06
8.9946373e-05
3.9838109e-06
5.9262629e-06
8.5163276e-05
3.9595077e-06
5.6547657e-06
8.0619137e-05
3.7899369e-06
5.3103784e-06
7.6329462e-05
3.5015547e-06
4.9350725e-06
7.230016e-05
3.1412013e-06
4.5559928e-06
6.8534206e-05
2.7514802e-06
4.1846641e-06
6.5032983e-05
2.3633493e-06
3.8278852e-06
6.1795789e-05
1.9984143e-06
3.490711e-06
5.8818843e-05
1.670376e-06
3.176301e-06
5.6094718e-05
1.3858295e-06
2.886043e-06
5.3612488e-05
1.1457945e-06
2.6200649e-06
5.1358373e-05
9.476412e-07
2.3777043e-06
4.9316593e-05
7.8676786e-07
2.1578272e-06
4.7470246e-05
6.5779548e-07
1.9590391e-06
4.5802069e-05
5.5532539e-07
1.7798252e-06
4.4295042e-05
4.7437115e-07
1.6186378e-06
4.293283e-05
4.1056668e-07
1.473948e-06
4.1700078e-05
3.6023236e-07
1.3442759e-06
4.0582591e-05
3.2035742e-07
1.2282094e-06
3.956742e-05
2.8853736e-07
1.1244154e-06
3.8642881e-05
2.6289064e-07
1.0316467e-06
3.7798527e-05
2.4196985e-07
9.4874399e-07
3.7025076e-05
2.2467704e-07
8.7465171e-07
3.6314324e-05
2.1018899e-07
8.084041e-07
3.5659057e-05
1.9788606e-07
7.4911041e-07
3.5052961e-05
1.8731583e-07
6.9597284e-07
3.4490519e-05
1.7814871e-07
6.482738e-07
3.3966922e-05
1.701317e-07
6.0537442e-07
3.3477973e-05
1.6306726e-07
5.6670865e-07
3.3020016e-05
1.5680297e-07
5.3177544e-07
3.2589865e-05
1.5122054e-07
5.0013244e-07
3.218474e-05
1.4622563e-07
4.7139139e-07
3.1802215e-05
1.4174073e-07
4.4521233e-07
3.1440168e-05
1.3770095e-07
4.2129809e-07
3.1096739e-05
1.3405097e-07
3.9938924e-07
3.0770297e-05
1.3074298e-07
3.7925953e-07
3.0459402e-05
1.2773518e-07
3.6071197e-07
3.0162787e-05
1.2499095e-07
3.4357479e-07
2.9879325e-05
1.2247786e-07
3.2769851e-07
2.960802e-05
1.2016731e-07
3.1295271e-07
2.934798e-05
1.1803382e-07
2.9922352e-07
2.9098408e-05
1.1605462e-07
2.864114e-07
2.885859e-05
1.1420983e-07
2.7442905e-07
2.8627882e-05
1.1248191e-07
2.6319998e-07
2.8405701e-05
1.1085559e-07
2.5265686e-07
2.819152e-05
1.0931757e-07
2.4274023e-07
2.7984859e-05
1.078565e-07
2.3339758e-07
2.7785279e-05
1.0646275e-07
2.2458212e-07
2.7592378e-05
1.0512871e-07
2.1625213e-07
2.740579e-05
1.0384738e-07
2.0837035e-07
2.7225174e-05
1.0261115e-07
2.009036e-07
2.705022e-05
1.0140747e-07
1.9382257e-07
2.6880641e-05
1.0023385e-07
1.871004e-07
2.6716166e-05
9.9092347e-08
1.8071224e-07
2.6556546e-05
9.7980002e-08
1.7463555e-07
2.6401548e-05
9.6892537e-08
1.6885014e-07
2.6250957e-05
9.5827073e-08
1.633374e-07
2.610457e-05
9.4781698e-08
1.5808042e-07
2.5962199e-05
9.3754758e-08
1.5306362e-07
2.5823666e-05
9.2744898e-08
1.4827259e-07
2.5688804e-05
9.1751007e-08
1.4369412e-07
2.5557458e-05
9.0771766e-08
1.39316e-07
2.5429481e-05
8.9805158e-08
1.3512694e-07
2.5304734e-05
8.8851451e-08
1.3111646e-07
2.5183087e-05
8.7911228e-08
1.2727467e-07
2.5064416e-05
8.6983921e-08
1.2359241e-07
2.4948604e-05
8.6068916e-08
1.2006121e-07
2.4835542e-05
8.5165804e-08
1.1667302e-07
2.4725124e-05
8.4274313e-08
1.1342043e-07
2.4617252e-05
8.3394279e-08
1.1029656e-07
2.4511832e-05
8.2525465e-08
1.0729477e-07
2.4408775e-05
8.1667749e-08
1.04409e-07
2.4307997e-05
8.0820972e-08
1.0163343e-07
2.4209416e-05
7.998503e-08
9.8962638e-08
2.4112956e-05
7.9159767e-08
9.6391534e-08
2.4018546e-05
7.8345061e-08
9.3915298e-08
2.3926115e-05
7.7540712e-08
9.1529312e-08
2.3835598e-05
7.6746568e-08
8.9229265e-08
2.3746933e-05
7.5962325e-08
8.7011032e-08
2.366006e-05
7.5187624e-08
8.4870704e-08
2.3574922e-05
7.4421968e-08
8.2804569e-08
2.3491466e-05
7.3664618e-08
8.0808897e-08
2.3409641e-05
7.291459e-08
7.8880324e-08
2.33294e-05
7.217068e-08
7.7015495e-08
2.3250698e-05
7.1431313e-08
7.5211032e-08
2.3173493e-05
7.0694879e-08
7.3463647e-08
2.3097745e-05
6.9960229e-08
7.177009e-08
2.3023418e-05
6.9227983e-08
7.0127008e-08
2.2950477e-05
6.8503511e-08
6.8531197e-08
2.2878889e-05
6.7802859e-08
6.6979706e-08
2.2808619e-05
6.7165042e-08
6.547157e-08
2.2739625e-05
6.6675231e-08
6.4013367e-08
2.267185e-05
6.6507077e-08
6.2642333e-08
2.2605149e-05
6.6990769e-08
6.1532364e-08
2.2538888e-05
6.8686048e-08
6.1499873e-08
2.2471121e-05
7.222696e-08
6.4845074e-08
7.6722822e-08
9.8461329e-08
0.0001051979
1.3340884e-06
6.4961222e-06
9.9496561e-05
2.3731022e-06
6.6011947e-06
9.4262459e-05
2.9019223e-06
6.1610799e-06
8.9251186e-05
3.0856642e-06
5.9094196e-06
8.4493497e-05
3.0947347e-06
5.6224614e-06
8.0033635e-05
2.9846657e-06
5.2651341e-06
7.5876907e-05
2.7790155e-06
4.8792667e-06
7.2014635e-05
2.5106844e-06
4.4927895e-06
6.8436293e-05
2.2128728e-06
4.1169489e-06
6.5131387e-05
1.9107259e-06
3.7575291e-06
6.208941e-05
1.6217321e-06
3.4186596e-06
5.9299432e-05
1.3573878e-06
3.1029661e-06
5.6749589e-05
1.1240344e-06
2.8116386e-06
5.4426788e-05
9.2377947e-07
2.5448158e-06
5.2316754e-05
7.55728e-07
2.3019466e-06
5.0404313e-05
6.1717856e-07
2.0820302e-06
4.8673788e-05
5.045435e-07
1.8837772e-06
4.7109414e-05
4.1397179e-07
1.7057274e-06
4.5695713e-05
3.4173649e-07
1.5463363e-06
4.4417792e-05
2.8445147e-07
1.4040359e-06
4.3261575e-05
2.3917114e-07
1.277278e-06
4.2213952e-05
2.0341502e-07
1.1645652e-06
4.1262871e-05
1.7514743e-07
1.0644718e-06
4.039737e-05
1.5273235e-07
9.7565899e-07
3.9607583e-05
1.3487531e-07
8.9688145e-07
3.8884688e-05
1.2055567e-07
8.270164e-07
3.8220848e-05
1.090109e-07
7.6501856e-07
3.7609155e-05
9.9633844e-08
7.0994488e-07
3.7043542e-05
9.1977454e-08
6.6095089e-07
3.6518702e-05
8.5705825e-08
6.1728292e-07
3.6030009e-05
8.0552385e-08
5.7827309e-07
3.5573433e-05
7.6308275e-08
5.4333415e-07
3.5145475e-05
7.2811275e-08
5.1195032e-07
3.4743091e-05
6.9934131e-08
4.8367025e-07
3.4363641e-05
6.7575454e-08
4.5810069e-07
3.4004828e-05
6.5652903e-08
4.3489998e-07
3.3664659e-05
6.4098589e-08
4.1377209e-07
3.3341393e-05
6.2855932e-08
3.9446094e-07
3.3033513e-05
6.1877015e-08
3.7674529e-07
3.2739693e-05
6.1121092e-08
3.6043425e-07
3.2458768e-05
6.0553065e-08
3.453633e-07
3.2189712e-05
6.0142662e-08
3.3139057e-07
3.1931622e-05
5.9863649e-08
3.1839377e-07
3.1683696e-05
5.9693128e-08
3.0626734e-07
3.1445219e-05
5.9611213e-08
2.9492013e-07
3.1215555e-05
5.9600626e-08
2.8427316e-07
3.0994132e-05
5.9646558e-08
2.7425807e-07
3.0780436e-05
5.9736181e-08
2.648154e-07
3.0574002e-05
5.9858675e-08
2.5589333e-07
3.0374407e-05
6.0004921e-08
2.4744662e-07
3.0181267e-05
6.0167635e-08
2.394355e-07
2.9994229e-05
6.0341218e-08
2.3182486e-07
2.9812971e-05
6.0521796e-08
2.245837e-07
2.9637193e-05
6.070447e-08
2.1768454e-07
2.9466629e-05
6.0867269e-08
2.1110456e-07
2.9301024e-05
6.1016985e-08
2.048218e-07
2.914014e-05
6.1160857e-08
1.9881569e-07
2.8983756e-05
6.1294958e-08
1.9306837e-07
2.8831669e-05
6.1415494e-08
1.8756389e-07
2.8683688e-05
6.1520989e-08
1.8228766e-07
2.8539633e-05
6.1610607e-08
1.7722638e-07
2.8399336e-05
6.1683816e-08
1.7236787e-07
2.8262639e-05
6.1740482e-08
1.6770091e-07
2.8129394e-05
6.1780707e-08
1.632152e-07
2.7999461e-05
6.1803901e-08
1.5890122e-07
2.7872709e-05
6.180738e-08
1.5475036e-07
2.7749012e-05
6.1793609e-08
1.5075445e-07
2.7628253e-05
6.1764854e-08
1.4690559e-07
2.7510319e-05
6.1721018e-08
1.431966e-07
2.7395105e-05
6.166216e-08
1.3962088e-07
2.728251e-05
6.1588641e-08
1.3617203e-07
2.7172439e-05
6.1501073e-08
1.3284422e-07
2.7064802e-05
6.1399961e-08
1.2963193e-07
2.6959511e-05
6.1285904e-08
1.2652991e-07
2.6856486e-05
6.1159551e-08
1.2353326e-07
2.6755649e-05
6.1021328e-08
1.2063732e-07
2.6656924e-05
6.0871878e-08
1.1783768e-07
2.6560242e-05
6.0711722e-08
1.1513016e-07
2.6465535e-05
6.0541393e-08
1.1251075e-07
2.6372738e-05
6.0361329e-08
1.0997578e-07
2.6281791e-05
6.0171945e-08
1.0752158e-07
2.6192636e-05
5.9973551e-08
1.0514472e-07
2.6105215e-05
5.9766291e-08
1.0284183e-07
2.6019477e-05
5.955023e-08
1.0060973e-07
2.5935371e-05
5.9325147e-08
9.8445261e-08
2.585285e-05
5.9090457e-08
9.6345381e-08
2.5771868e-05
5.8845437e-08
9.4306947e-08
2.5692384e-05
5.8588973e-08
9.2326761e-08
2.5614357e-05
5.8319811e-08
9.0401467e-08
2.5537753e-05
5.8037055e-08
8.8527335e-08
2.5462539e-05
5.7741625e-08
8.6700178e-08
2.5388689e-05
5.7438425e-08
8.4915174e-08
2.5316184e-05
5.7141399e-08
8.3166621e-08
2.5245017e-05
5.6882571e-08
8.1449657e-08
2.51752e-05
5.6726062e-08
7.9765826e-08
2.510677e-05
5.6787946e-08
7.8149211e-08
2.5039729e-05
5.7251611e-08
7.6780977e-08
2.4973573e-05
5.8330982e-08
7.6510204e-08
2.4906079e-05
5.99895e-08
7.9732154e-08
6.0715029e-08
1.1287823e-07
0.00010503672
9.0789373e-07
6.5005614e-06
9.9140653e-05
1.6524914e-06
6.6166802e-06
9.3788329e-05
2.0825242e-06
6.1717217e-06
8.8708526e-05
2.2549373e-06
5.91053e-06
8.3909682e-05
2.278404e-06
5.6151748e-06
7.9437109e-05
2.2074821e-06
5.2497564e-06
7.5296201e-05
2.0645348e-06
4.8553893e-06
7.1474034e-05
1.8722543e-06
4.4605969e-06
6.7955013e-05
1.6547667e-06
4.0771269e-06
6.4723621e-05
1.4313505e-06
3.7107669e-06
6.1764423e-05
1.2154297e-06
3.3655007e-06
5.9062056e-05
1.015864e-06
3.0438911e-06
5.6601108e-05
8.3782742e-07
2.7471548e-06
5.4365944e-05
6.8344647e-07
2.475497e-06
5.2340648e-05
5.5258526e-07
2.2284383e-06
5.0509125e-05
4.4366545e-07
2.0050361e-06
4.8855299e-05
3.5433457e-07
1.8040352e-06
4.7363353e-05
2.8193595e-07
1.6239821e-06
4.6017963e-05
2.2381349e-07
1.4633127e-06
4.4804502e-05
1.7749382e-07
1.3204181e-06
4.3709199e-05
1.4078089e-07
1.1936935e-06
4.2719248e-05
1.1179156e-07
1.081575e-06
4.1822875e-05
8.895454e-08
9.8256583e-07
4.1009364e-05
7.098802e-08
8.9525473e-07
4.0269054e-05
5.6861847e-08
8.183238e-07
3.9593306e-05
4.5719145e-08
7.5058476e-07
3.8974405e-05
3.697786e-08
6.9093436e-07
3.8405585e-05
3.0067384e-08
6.3838632e-07
3.7880869e-05
2.4650828e-08
5.9204241e-07
3.7395029e-05
2.0439954e-08
5.5110606e-07
3.6943514e-05
1.7190255e-08
5.1487714e-07
3.6522366e-05
1.4716742e-08
4.8273958e-07
3.6128148e-05
1.2874786e-08
4.5415391e-07
3.5757883e-05
1.154991e-08
4.2864943e-07
3.5408991e-05
1.0650791e-08
4.0581705e-07
3.5079238e-05
1.010363e-08
3.8530228e-07
3.4766689e-05
9.8482757e-09
3.6679876e-07
3.4469668e-05
9.835149e-09
3.5004235e-07
3.4186716e-05
1.0022937e-08
3.3480552e-07
3.3916567e-05
1.0377063e-08
3.2089286e-07
3.3658116e-05
1.0868058e-08
3.081366e-07
3.3410395e-05
1.1470952e-08
2.9639281e-07
3.3172556e-05
1.2164204e-08
2.8553825e-07
3.2943853e-05
1.2929278e-08
2.7546718e-07
3.2723625e-05
1.3750185e-08
2.6608893e-07
3.2511286e-05
1.4613091e-08
2.5732572e-07
3.2306316e-05
1.5506213e-08
2.4911066e-07
3.2108246e-05
1.6419576e-08
2.4138619e-07
3.1916658e-05
1.7344633e-08
2.3410268e-07
3.1731171e-05
1.8274313e-08
2.2721713e-07
3.1551444e-05
1.9203138e-08
2.2069215e-07
3.1377162e-05
2.0127715e-08
2.144951e-07
3.1208038e-05
2.1048632e-08
2.0859682e-07
3.10438e-05
2.197276e-08
2.0297055e-07
3.0884232e-05
2.2827836e-08
1.9760738e-07
3.0729103e-05
2.3662967e-08
1.924823e-07
3.05782e-05
2.4489975e-08
1.8757383e-07
3.0431331e-05
2.5296269e-08
1.8286762e-07
3.0288318e-05
2.607799e-08
1.7835079e-07
3.0148994e-05
2.6834296e-08
1.7401106e-07
3.0013202e-05
2.7564687e-08
1.6983754e-07
2.9880797e-05
2.8268965e-08
1.6582024e-07
2.975164e-05
2.8947444e-08
1.6195015e-07
2.9625601e-05
2.960081e-08
1.5821899e-07
2.9502557e-05
3.0228577e-08
1.546192e-07
2.9382396e-05
3.0823628e-08
1.5114467e-07
2.9265007e-05
3.1393144e-08
1.4778877e-07
2.9150287e-05
3.193962e-08
1.4454537e-07
2.9038137e-05
3.2461891e-08
1.41409e-07
2.8928465e-05
3.2960069e-08
1.3837461e-07
2.8821181e-05
3.343469e-08
1.3543749e-07
2.8716203e-05
3.3886325e-08
1.325933e-07
2.8613449e-05
3.4315531e-08
1.2983789e-07
2.8512845e-05
3.4722874e-08
1.2716737e-07
2.8414317e-05
3.510897e-08
1.2457813e-07
2.8317797e-05
3.5474448e-08
1.2206681e-07
2.8223219e-05
3.5819886e-08
1.1963008e-07
2.813052e-05
3.61459e-08
1.1726491e-07
2.803964e-05
3.6453093e-08
1.1496841e-07
2.7950522e-05
3.6741897e-08
1.1273773e-07
2.7863111e-05
3.701282e-08
1.1057027e-07
2.7777354e-05
3.7266258e-08
1.0846346e-07
2.7693204e-05
3.7502469e-08
1.0641475e-07
2.7610611e-05
3.7721589e-08
1.0442174e-07
2.752953e-05
3.7923519e-08
1.0248198e-07
2.744992e-05
3.8107961e-08
1.0059306e-07
2.7371738e-05
3.8274271e-08
9.8752305e-08
2.7294949e-05
3.842154e-08
9.6956934e-08
2.7219516e-05
3.854874e-08
9.5203647e-08
2.714541e-05
3.8655117e-08
9.3488606e-08
2.7072603e-05
3.8741158e-08
9.1806949e-08
2.7001079e-05
3.8810277e-08
9.0152305e-08
2.6930832e-05
3.887214e-08
8.851659e-08
2.6861876e-05
3.8947388e-08
8.6890536e-08
2.679426e-05
3.9073553e-08
8.5269178e-08
2.6728065e-05
3.9306963e-08
8.3675941e-08
2.6663337e-05
3.9708335e-08
8.2271157e-08
2.659956e-05
4.0272016e-08
8.1836172e-08
2.6534295e-05
4.0698034e-08
8.4555709e-08
3.9620844e-08
1.1507131e-07
0.00010494757
5.6811083e-07
6.5033076e-06
9.8925416e-05
1.0462983e-06
6.6283517e-06
9.3480449e-05
1.3439844e-06
6.1835065e-06
8.8341777e-05
1.4751324e-06
5.9184763e-06
8.3502084e-05
1.4993911e-06
5.6187065e-06
7.9004057e-05
1.4572411e-06
5.2482679e-06
7.4853978e-05
1.3667382e-06
4.8478757e-06
7.1037378e-05
1.2423973e-06
4.4464569e-06
6.7536063e-05
1.0997693e-06
4.0563128e-06
6.4331998e-05
9.5192361e-07
3.683491e-06
6.1407318e-05
8.0805756e-07
3.3320524e-06
5.8744339e-05
6.7422204e-07
3.0046209e-06
5.6325632e-05
5.5404397e-07
2.7024907e-06
5.4133973e-05
4.4916747e-07
2.4259383e-06
5.2152298e-05
3.5972398e-07
2.174536e-06
5.0363747e-05
2.8484513e-07
1.9473718e-06
4.875178e-05
2.2310006e-07
1.7432015e-06
4.7300339e-05
1.7281166e-07
1.5605647e-06
4.5994012e-05
1.3226571e-07
1.3978747e-06
4.4818177e-05
9.9839997e-08
1.2534891e-06
4.3759121e-05
7.4075623e-08
1.1257614e-06
4.2804123e-05
5.3707652e-08
1.0130814e-06
4.1941503e-05
3.7671206e-08
9.1390375e-07
4.1160627e-05
2.5096458e-08
8.2676733e-07
4.0451891e-05
1.5294188e-08
7.5030389e-07
3.980679e-05
7.5281795e-09
6.8329176e-07
3.9217543e-05
1.6727732e-09
6.2455205e-07
3.8677513e-05
-3.0330979e-09
5.7313084e-07
3.8180739e-05
-6.6486657e-09
5.2807355e-07
3.7722004e-05
-9.3594933e-09
4.885345e-07
3.7296777e-05
-1.1371797e-08
4.5378927e-07
3.6901113e-05
-1.2818235e-08
4.2319911e-07
3.6531588e-05
-1.3805318e-08
3.9620478e-07
3.6185236e-05
-1.4417502e-08
3.7231876e-07
3.5859491e-05
-1.472192e-08
3.5111778e-07
3.5552132e-05
-1.4772624e-08
3.322358e-07
3.5261237e-05
-1.4613917e-08
3.1535729e-07
3.4985143e-05
-1.4282176e-08
3.0021092e-07
3.472241e-05
-1.3807699e-08
2.8656376e-07
3.4471787e-05
-1.3215874e-08
2.7421631e-07
3.4232185e-05
-1.2528195e-08
2.6299769e-07
3.4002657e-05
-1.176279e-08
2.5276173e-07
3.3782373e-05
-1.0935234e-08
2.4338336e-07
3.3570606e-05
-1.0058772e-08
2.3475556e-07
3.3366714e-05
-9.144745e-09
2.2678671e-07
3.3170132e-05
-8.2028193e-09
2.1939833e-07
3.2980356e-05
-7.2412565e-09
2.1252301e-07
3.279694e-05
-6.2669195e-09
2.0610284e-07
3.2619482e-05
-5.2855752e-09
2.0008783e-07
3.2447623e-05
-4.3018307e-09
1.9443479e-07
3.228104e-05
-3.3190705e-09
1.8910588e-07
3.2119438e-05
-2.3383047e-09
1.8406735e-07
3.1962554e-05
-1.3530523e-09
1.792865e-07
3.1810075e-05
-2.7634703e-10
1.7472767e-07
3.1661878e-05
5.8583569e-10
1.7043906e-07
3.1517732e-05
1.4356074e-09
1.6637293e-07
3.1377429e-05
2.303818e-09
1.624896e-07
3.1240792e-05
3.1586467e-09
1.5877486e-07
3.1107656e-05
3.9969594e-09
1.5521721e-07
3.0977867e-05
4.8171744e-09
1.5180546e-07
3.0851284e-05
5.6179749e-09
1.4852966e-07
3.0727774e-05
6.3990199e-09
1.4538078e-07
3.0607209e-05
7.1609289e-09
1.4235054e-07
3.0489473e-05
7.9059593e-09
1.3943121e-07
3.037445e-05
8.6357782e-09
1.3661577e-07
3.0262049e-05
9.3206903e-09
1.3390397e-07
3.0152163e-05
9.9938235e-09
1.3128565e-07
3.0044697e-05
1.0650374e-08
1.2875513e-07
2.9939564e-05
1.1286763e-08
1.2630827e-07
2.983668e-05
1.1903196e-08
1.2394087e-07
2.9735965e-05
1.2500156e-08
1.2164885e-07
2.9637345e-05
1.3077878e-08
1.1942844e-07
2.9540748e-05
1.363672e-08
1.1727616e-07
2.9446105e-05
1.4177042e-08
1.1518883e-07
2.9353352e-05
1.4699183e-08
1.1316338e-07
2.9262425e-05
1.5203555e-08
1.1119701e-07
2.9173268e-05
1.5690511e-08
1.0928707e-07
2.9085822e-05
1.6160403e-08
1.0743111e-07
2.9000035e-05
1.6613573e-08
1.0562665e-07
2.8915855e-05
1.7050415e-08
1.0387153e-07
2.8833233e-05
1.7471111e-08
1.0216363e-07
2.8752123e-05
1.7875968e-08
1.0050082e-07
2.8672479e-05
1.826507e-08
9.8881111e-08
2.8594259e-05
1.8638524e-08
9.7302495e-08
2.8517424e-05
1.8996205e-08
9.5762923e-08
2.8441934e-05
1.9337787e-08
9.4260315e-08
2.8367753e-05
1.966281e-08
9.2792369e-08
2.8294848e-05
1.9970473e-08
9.1356274e-08
2.8223187e-05
2.0260019e-08
8.9948891e-08
2.8152746e-05
2.053072e-08
8.8565925e-08
2.8083503e-05
2.0782599e-08
8.7201775e-08
2.8015447e-05
2.1017538e-08
8.5848703e-08
2.7948582e-05
2.1240727e-08
8.449586e-08
2.7882937e-05
2.1462724e-08
8.3129515e-08
2.7818575e-05
2.1699984e-08
8.173652e-08
2.7755588e-05
2.1969299e-08
8.0324355e-08
2.7694014e-05
2.2266145e-08
7.9016071e-08
2.7633299e-05
2.250626e-08
7.8480628e-08
2.7571004e-05
2.2393417e-08
8.0599435e-08
2.0993102e-08
1.0779943e-07
0.00010489986
2.7443378e-07
6.5049155e-06
9.8802772e-05
5.0716634e-07
6.6362236e-06
9.329591e-05
6.5854977e-07
6.1922972e-06
8.8116302e-05
7.2902546e-07
5.9257148e-06
8.3248198e-05
7.4378814e-07