/*--------------------------------*- C++ -*----------------------------------*\
  =========                 |
  \\      /  F ield         | OpenFOAM: The Open Source CFD Toolbox
   \\    /   O peration     | Website:  https://openfoam.org
    \\  /    A nd           | Version:  7
     \\/     M anipulation  |
\*---------------------------------------------------------------------------*/
FoamFile
{
    version     2.0;
    format      ascii;
    class       surfaceScalarField;
    location    "2950/water";
    object      phi;
}
// * * * * * * * * * * * * * * * * * * * * * * * * * * * * * * * * * * * * * //

dimensions      [1 0 -1 0 0 0 0];

internalField   nonuniform List<scalar> 
156660
(
9.905724e-05
6.0010402e-06
6.0528092e-06
8.6847497e-05
6.0555113e-06
6.1542307e-06
7.5687891e-05
5.5111363e-06
5.6484701e-06
6.5441704e-05
5.0404181e-06
5.2057689e-06
5.6267661e-05
4.4956436e-06
4.6783992e-06
4.8318019e-05
3.8797648e-06
4.0698777e-06
4.1624776e-05
3.2524448e-06
3.4407981e-06
3.6124897e-05
2.660462e-06
2.839417e-06
3.1692235e-05
2.1345127e-06
2.2981489e-06
2.8162841e-05
1.6926975e-06
1.8366964e-06
2.5361437e-05
1.3399933e-06
1.4614113e-06
2.3124664e-05
1.0698476e-06
1.1669256e-06
2.1315127e-05
8.6875418e-07
9.4078227e-07
1.9825714e-05
7.2110064e-07
7.6831273e-07
1.8577278e-05
6.1248248e-07
6.3595305e-07
1.7513255e-05
5.3125221e-07
5.327715e-07
1.6593744e-05
4.6879728e-07
4.5071351e-07
1.5790433e-05
4.1913721e-07
3.841739e-07
1.5082784e-05
3.7829072e-07
3.2935847e-07
1.4455417e-05
3.4367128e-07
2.8369562e-07
1.3896409e-05
3.1361409e-07
2.4539332e-07
1.339622e-05
2.8704449e-07
2.1314452e-07
1.2947015e-05
2.6326031e-07
1.8594513e-07
1.2542237e-05
2.4179365e-07
1.629846e-07
1.2176318e-05
2.2232206e-07
1.4359691e-07
1.1844484e-05
2.046148e-07
1.2721881e-07
1.1542609e-05
1.8849493e-07
1.1337973e-07
1.1267116e-05
1.7381576e-07
1.0167791e-07
1.1014892e-05
1.604627e-07
9.1760833e-08
1.0783252e-05
1.4833967e-07
8.3300586e-08
1.0569851e-05
1.3734905e-07
7.6052128e-08
1.0372614e-05
1.2738861e-07
6.9848322e-08
1.0189731e-05
1.1836805e-07
6.4514806e-08
1.001963e-05
1.1020447e-07
5.9896633e-08
9.8609388e-06
1.0281919e-07
5.5871676e-08
9.7124595e-06
9.6137935e-08
5.2341366e-08
9.5731439e-06
9.0091171e-08
4.9224349e-08
9.4420759e-06
8.4614479e-08
4.6453564e-08
9.3184531e-06
7.9648686e-08
4.397413e-08
9.2015723e-06
7.5139724e-08
4.1741078e-08
9.0908166e-06
7.1038175e-08
3.9717568e-08
8.9856431e-06
6.7301142e-08
3.7872309e-08
8.8855707e-06
6.3894235e-08
3.6178171e-08
8.7901757e-06
6.0780128e-08
3.4614956e-08
8.6990829e-06
5.7926173e-08
3.316664e-08
8.611959e-06
5.5303711e-08
3.1820146e-08
8.5285072e-06
5.2887422e-08
3.0564405e-08
8.4484618e-06
5.0655061e-08
2.9390268e-08
8.3715848e-06
4.8587037e-08
2.8290001e-08
8.2976614e-06
4.6666198e-08
2.7257201e-08
8.2264975e-06
4.4877495e-08
2.6286437e-08
8.1579202e-06
4.3208807e-08
2.5368532e-08
8.0917731e-06
4.1649e-08
2.4498046e-08
8.0279107e-06
4.0186984e-08
2.3675354e-08
7.9662005e-06
3.8812691e-08
2.2897556e-08
7.9065219e-06
3.751839e-08
2.2160225e-08
7.8487639e-06
3.6297869e-08
2.1460154e-08
7.7928241e-06
3.5145169e-08
2.0794568e-08
7.7386083e-06
3.4054683e-08
2.0161139e-08
7.6860293e-06
3.3021369e-08
1.9557691e-08
7.6350062e-06
3.2040801e-08
1.8982269e-08
7.5854641e-06
3.1109046e-08
1.8433066e-08
7.537333e-06
3.0222603e-08
1.7908489e-08
7.4905478e-06
2.9378239e-08
1.7406977e-08
7.4450475e-06
2.8572994e-08
1.69272e-08
7.4007755e-06
2.780422e-08
1.6467796e-08
7.3576783e-06
2.7069608e-08
1.6027627e-08
7.3157056e-06
2.6367053e-08
1.5605642e-08
7.2748103e-06
2.5694676e-08
1.5200682e-08
7.2349479e-06
2.5050564e-08
1.4811839e-08
7.1960766e-06
2.4433079e-08
1.4438181e-08
7.158157e-06
2.3840676e-08
1.4078946e-08
7.1211518e-06
2.3271938e-08
1.3733303e-08
7.0850258e-06
2.2725514e-08
1.3400531e-08
7.0497456e-06
2.2200224e-08
1.3079951e-08
7.0152798e-06
2.1694917e-08
1.2770895e-08
6.9815985e-06
2.12086e-08
1.247275e-08
6.9486733e-06
2.0740258e-08
1.2184936e-08
6.9164775e-06
2.0288983e-08
1.1906809e-08
6.8849857e-06
1.9853952e-08
1.1637849e-08
6.8541739e-06
1.9434355e-08
1.1377443e-08
6.8240193e-06
1.9029452e-08
1.1125134e-08
6.7945006e-06
1.8638487e-08
1.0880265e-08
6.7655975e-06
1.826076e-08
1.0642298e-08
6.7372912e-06
1.7895522e-08
1.0410745e-08
6.709564e-06
1.7542097e-08
1.018509e-08
6.6823995e-06
1.7199654e-08
9.9648595e-09
6.6557824e-06
1.6867293e-08
9.7498106e-09
6.6296983e-06
1.654413e-08
9.5399813e-09
6.604133e-06
1.6229272e-08
9.3359773e-09
6.5790714e-06
1.5921967e-08
9.1396872e-09
6.554494e-06
1.5622342e-08
8.9551029e-09
6.5303708e-06
1.5332564e-08
8.7906564e-09
6.5066467e-06
1.5060462e-08
8.663603e-09
6.4832093e-06
1.4827807e-08
8.6095e-09
6.4598103e-06
1.4693075e-08
8.7059874e-09
6.4358387e-06
1.4826399e-08
9.145134e-09
6.4096302e-06
1.5741763e-08
1.0466753e-08
6.3782854e-06
1.8026564e-08
1.3318206e-08
3.230022e-08
2.7923568e-08
0.00010646494
4.1872385e-06
6.4599816e-06
0.0001002019
5.695418e-06
6.6231353e-06
9.3659588e-05
5.7790389e-06
6.2744098e-06
8.7011589e-05
5.6514782e-06
6.0369387e-06
8.0422927e-05
5.3669119e-06
5.7173941e-06
7.4094022e-05
4.9022832e-06
5.3063862e-06
6.8167026e-05
4.3278135e-06
4.8516272e-06
6.2722565e-05
3.7178909e-06
4.387032e-06
5.7799049e-05
3.1243144e-06
3.9337144e-06
5.3403345e-05
2.5820689e-06
3.5063329e-06
4.9517402e-05
2.1121062e-06
3.1138299e-06
4.6105482e-05
1.7220197e-06
2.7597474e-06
4.3121558e-05
1.4089355e-06
2.4437429e-06
4.0515558e-05
1.1637552e-06
2.163346e-06
3.8237948e-05
9.7485849e-07
1.9152336e-06
3.6242683e-05
8.3055977e-07
1.6959573e-06
3.4488759e-05
7.2043697e-07
1.5022849e-06
3.2940716e-05
6.3586296e-07
1.3313172e-06
3.1568463e-05
5.7005004e-07
1.1804931e-06
3.0346733e-05
5.1784895e-07
1.0475522e-06
2.9254398e-05
4.7545954e-07
9.3049031e-07
2.8273782e-05
4.4013957e-07
8.2752023e-07
2.7390054e-05
4.099489e-07
7.3704008e-07
2.6590699e-05
3.8353956e-07
6.5760859e-07
2.5865102e-05
3.5998888e-07
5.8793073e-07
2.5204197e-05
3.3867629e-07
5.2684261e-07
2.4600205e-05
3.1918359e-07
4.7330347e-07
2.4046429e-05
3.0120192e-07
4.2639017e-07
2.3537073e-05
2.8455207e-07
3.8526714e-07
2.3067119e-05
2.6911099e-07
3.4918239e-07
2.2632208e-05
2.5478165e-07
3.1747784e-07
2.2228528e-05
2.4147381e-07
2.8959535e-07
2.1852744e-05
2.2911072e-07
2.6504125e-07
2.1501947e-05
2.1762892e-07
2.4337258e-07
2.1173591e-05
2.0696951e-07
2.2420573e-07
2.0865444e-05
1.9707566e-07
2.0720867e-07
2.0575549e-05
1.878925e-07
1.9209398e-07
2.0302183e-05
1.7936721e-07
1.7861343e-07
2.0043829e-05
1.714491e-07
1.6655327e-07
1.979915e-05
1.6408983e-07
1.5572944e-07
1.956696e-05
1.5724381e-07
1.4598404e-07
1.934621e-05
1.5086891e-07
1.3718217e-07
1.9135969e-05
1.4492651e-07
1.2920881e-07
1.8935407e-05
1.3937907e-07
1.2196307e-07
1.8743783e-05
1.3419231e-07
1.1535764e-07
1.8560435e-05
1.2933508e-07
1.0931729e-07
1.8384766e-05
1.2477909e-07
1.0377716e-07
1.8216241e-05
1.2049851e-07
9.868128e-08
1.8054377e-05
1.1647013e-07
9.3981293e-08
1.7898734e-05
1.126729e-07
8.9635406e-08
1.7748917e-05
1.090882e-07
8.5606997e-08
1.7604563e-05
1.057e-07
8.1862399e-08
1.7465345e-05
1.0249333e-07
7.8373282e-08
1.7330962e-05
9.9452973e-08
7.5116995e-08
1.7201138e-05
9.6564376e-08
7.2072756e-08
1.7075619e-05
9.3816649e-08
6.9221166e-08
1.695417e-05
9.1201087e-08
6.654511e-08
1.6836577e-05
8.8709124e-08
6.4029536e-08
1.6722638e-05
8.6331954e-08
6.1661028e-08
1.661217e-05
8.4061825e-08
5.9427693e-08
1.6505001e-05
8.189152e-08
5.7318796e-08
1.640097e-05
7.9814931e-08
5.5324832e-08
1.6299929e-05
7.7826153e-08
5.3437124e-08
1.620174e-05
7.591985e-08
5.1647912e-08
1.6106272e-05
7.4091017e-08
4.9950106e-08
1.6013404e-05
7.2334961e-08
4.8337354e-08
1.5923022e-05
7.0647751e-08
4.6803866e-08
1.5835019e-05
6.9025725e-08
4.5344247e-08
1.5749294e-05
6.7465561e-08
4.3953688e-08
1.5665753e-05
6.5963795e-08
4.2627697e-08
1.5584307e-05
6.4517385e-08
4.136215e-08
1.5504871e-05
6.3123421e-08
4.0153325e-08
1.5427365e-05
6.1779298e-08
3.8997797e-08
1.5351716e-05
6.0482538e-08
3.7892304e-08
1.5277852e-05
5.9230828e-08
3.6833853e-08
1.5205705e-05
5.8021998e-08
3.5819727e-08
1.5135212e-05
5.685398e-08
3.4847346e-08
1.5066313e-05
5.5724973e-08
3.3914361e-08
1.499895e-05
5.4633112e-08
3.3018403e-08
1.493307e-05
5.3576731e-08
3.2157447e-08
1.4868621e-05
5.2554179e-08
3.1329416e-08
1.4805554e-05
5.1563912e-08
3.0532468e-08
1.4743823e-05
5.060447e-08
2.9764705e-08
1.4683385e-05
4.9674263e-08
2.9024391e-08
1.4624199e-05
4.8771806e-08
2.8309861e-08
1.4566226e-05
4.7895467e-08
2.7619593e-08
1.4509431e-05
4.7043519e-08
2.6952001e-08
1.4453778e-05
4.6214142e-08
2.6305761e-08
1.4399237e-05
4.5405421e-08
2.5679905e-08
1.4345777e-05
4.4615727e-08
2.5073724e-08
1.4293367e-05
4.3844257e-08
2.448768e-08
1.4241972e-05
4.3092914e-08
2.3923751e-08
1.4191548e-05
4.2369922e-08
2.3387128e-08
1.4142019e-05
4.1699307e-08
2.2889625e-08
1.4093249e-05
4.1141631e-08
2.2456609e-08
1.4044951e-05
4.0844649e-08
2.2146546e-08
1.3996485e-05
4.1169185e-08
2.2123038e-08
1.3946229e-05
4.3012289e-08
2.2985375e-08
1.389015e-05
4.8540296e-08
2.5565783e-08
6.3281558e-08
5.0000867e-08
0.00010603565
2.7876425e-06
6.4750379e-06
0.00010074799
4.4145412e-06
6.5685292e-06
9.5493515e-05
4.8594027e-06
6.1741158e-06
9.0256432e-05
4.930369e-06
5.9581921e-06
8.5101366e-05
4.8311767e-06
5.6908012e-06
8.0102875e-05
4.5561761e-06
5.3445981e-06
7.5322251e-05
4.1469521e-06
4.9614853e-06
7.0803266e-05
3.6678925e-06
4.5689837e-06
6.6576264e-05
3.1701903e-06
4.1811255e-06
6.2660725e-05
2.690011e-06
3.8075976e-06
5.9065443e-05
2.2519319e-06
3.4554566e-06
5.5788936e-05
1.8697304e-06
3.1287958e-06
5.2820978e-05
1.5477473e-06
2.8291458e-06
5.014479e-05
1.2836302e-06
2.5563139e-06
4.7739304e-05
1.07123e-06
2.3091141e-06
4.5581183e-05
9.0281504e-07
2.0858661e-06
4.3646423e-05
7.7048779e-07
1.884709e-06
4.1911533e-05
6.6697373e-07
1.7037792e-06
4.0354306e-05
5.8598195e-07
1.541295e-06
3.8954268e-05
5.2230222e-07
1.3955849e-06
3.769288e-05
4.7175604e-07
1.265091e-06
3.6553576e-05
4.3107984e-07
1.1483634e-06
3.552169e-05
3.9778204e-07
1.0440534e-06
3.4584322e-05
3.6999881e-07
9.5090832e-07
3.3730181e-05
3.4635982e-07
8.6777015e-07
3.2949411e-05
3.258776e-07
7.9356872e-07
3.2233419e-05
3.0784046e-07
7.2733486e-07
3.1574711e-05
2.9172986e-07
6.6818103e-07
3.0966769e-05
2.7719267e-07
6.1530129e-07
3.0403928e-05
2.6398101e-07
5.6797019e-07
2.9881258e-05
2.5190849e-07
5.2554315e-07
2.9394455e-05
2.4082714e-07
4.8745002e-07
2.8939761e-05
2.3062162e-07
4.5318329e-07
2.8513895e-05
2.212015e-07
4.2229389e-07
2.8113985e-05
2.1249192e-07
3.9438674e-07
2.7737518e-05
2.0442796e-07
3.6911491e-07
2.7382285e-05
1.9695189e-07
3.4617383e-07
2.7046344e-05
1.9001175e-07
3.2529682e-07
2.6727982e-05
1.8355993e-07
3.0625046e-07
2.6425689e-05
1.7755276e-07
2.8883087e-07
2.6138123e-05
1.7195004e-07
2.7285986e-07
2.5864094e-05
1.6671514e-07
2.5818184e-07
2.5602546e-05
1.6181453e-07
2.4466093e-07
2.535253e-05
1.5721708e-07
2.3217764e-07
2.51132e-05
1.5289444e-07
2.2062725e-07
2.4883797e-05
1.4882097e-07
2.0991775e-07
2.4663634e-05
1.4497369e-07
1.9996811e-07
2.4452094e-05
1.4133183e-07
1.9070705e-07
2.4248615e-05
1.3787696e-07
1.8207151e-07
2.405269e-05
1.3459267e-07
1.7400572e-07
2.3863854e-05
1.3146457e-07
1.664599e-07
2.3681684e-05
1.2848056e-07
1.5938927e-07
2.3505794e-05
1.2562917e-07
1.5275412e-07
2.3335829e-05
1.2289865e-07
1.4651968e-07
2.3171462e-05
1.2027636e-07
1.4065463e-07
2.3012394e-05
1.1775473e-07
1.3513023e-07
2.2858345e-05
1.1532969e-07
1.2992044e-07
2.2709057e-05
1.1299539e-07
1.2500175e-07
2.2564291e-05
1.1074519e-07
1.2035288e-07
2.2423824e-05
1.0857349e-07
1.1595458e-07
2.2287451e-05
1.0647552e-07
1.1178922e-07
2.2154978e-05
1.0444703e-07
1.0784083e-07
2.2026226e-05
1.0248421e-07
1.0409459e-07
2.1901025e-05
1.005835e-07
1.0053715e-07
2.1779218e-05
9.8741543e-08
9.7156161e-08
2.1660658e-05
9.695489e-08
9.3940262e-08
2.1545205e-05
9.5221258e-08
9.0879038e-08
2.1432729e-05
9.3538818e-08
8.7962774e-08
2.1323107e-05
9.1905302e-08
8.5182603e-08
2.1216222e-05
9.0318534e-08
8.2530196e-08
2.1111965e-05
8.877644e-08
7.9997867e-08
2.1010233e-05
8.7277131e-08
7.7578667e-08
2.0910927e-05
8.5818959e-08
7.5265868e-08
2.0813956e-05
8.4400311e-08
7.3053454e-08
2.0719232e-05
8.3019682e-08
7.0935672e-08
2.0626671e-05
8.1675635e-08
6.8907209e-08
2.0536195e-05
8.0366828e-08
6.6963127e-08
2.0447729e-05
7.9091959e-08
6.5098754e-08
2.0361203e-05
7.7849818e-08
6.3309764e-08
2.0276548e-05
7.6639223e-08
6.1592049e-08
2.0193702e-05
7.5458962e-08
5.9941732e-08
2.0112602e-05
7.430796e-08
5.8355248e-08
2.0033193e-05
7.3184896e-08
5.6829036e-08
1.9955418e-05
7.2088596e-08
5.5359954e-08
1.9879228e-05
7.1017635e-08
5.3944846e-08
1.9804572e-05
6.9970424e-08
5.2580743e-08
1.9731406e-05
6.8945259e-08
5.1264804e-08
1.9659685e-05
6.794014e-08
4.9994373e-08
1.9589371e-05
6.6953044e-08
4.8767039e-08
1.9520423e-05
6.5982378e-08
4.7580538e-08
1.9452806e-05
6.5028044e-08
4.6433099e-08
1.9386481e-05
6.4094093e-08
4.5323736e-08
1.9321404e-05
6.3194701e-08
4.4253073e-08
1.9257511e-05
6.2366316e-08
4.3225233e-08
1.9194705e-05
6.1695143e-08
4.2253165e-08
1.9132798e-05
6.1374062e-08
4.1377386e-08
1.9071394e-05
6.1822424e-08
4.0750665e-08
1.9009424e-05
6.3924745e-08
4.1057619e-08
1.8944661e-05
6.9304708e-08
4.399881e-08
7.9170971e-08
7.4661553e-08
0.0001054937
1.9169871e-06
6.4880406e-06
0.00010005365
3.2729596e-06
6.5816334e-06
9.4926077e-05
3.8288995e-06
6.1580776e-06
8.9946373e-05
3.9838109e-06
5.9262629e-06
8.5163276e-05
3.9595077e-06
5.6547657e-06
8.0619137e-05
3.7899369e-06
5.3103784e-06
7.6329462e-05
3.5015547e-06
4.9350725e-06
7.230016e-05
3.1412013e-06
4.5559928e-06
6.8534206e-05
2.7514802e-06
4.1846641e-06
6.5032983e-05
2.3633493e-06
3.8278852e-06
6.1795789e-05
1.9984144e-06
3.490711e-06
5.8818843e-05
1.670376e-06
3.176301e-06
5.6094717e-05
1.3858295e-06
2.886043e-06
5.3612488e-05
1.1457945e-06
2.6200649e-06
5.1358373e-05
9.4764117e-07
2.3777043e-06
4.9316593e-05
7.8676783e-07
2.1578272e-06
4.7470246e-05
6.577955e-07
1.9590391e-06
4.5802069e-05
5.5532541e-07
1.7798252e-06
4.4295042e-05
4.7437114e-07
1.6186378e-06
4.293283e-05
4.1056667e-07
1.473948e-06
4.1700078e-05
3.6023238e-07
1.3442759e-06
4.0582591e-05
3.2035744e-07
1.2282094e-06
3.956742e-05
2.8853738e-07
1.1244154e-06
3.8642881e-05
2.6289062e-07
1.0316467e-06
3.7798527e-05
2.4196983e-07
9.4874401e-07
3.7025076e-05
2.2467706e-07
8.7465172e-07
3.6314324e-05
2.10189e-07
8.0840412e-07
3.5659057e-05
1.9788605e-07
7.4911041e-07
3.5052961e-05
1.8731584e-07
6.9597282e-07
3.4490519e-05
1.7814873e-07
6.482738e-07
3.3966922e-05
1.701317e-07
6.0537439e-07
3.3477973e-05
1.6306729e-07
5.6670866e-07
3.3020016e-05
1.5680297e-07
5.3177542e-07
3.2589865e-05
1.5122054e-07
5.0013244e-07
3.218474e-05
1.4622563e-07
4.7139139e-07
3.1802215e-05
1.4174071e-07
4.4521232e-07
3.1440168e-05
1.3770094e-07
4.212981e-07
3.1096739e-05
1.3405097e-07
3.9938924e-07
3.0770297e-05
1.3074294e-07
3.7925955e-07
3.0459402e-05
1.2773518e-07
3.6071196e-07
3.0162787e-05
1.2499092e-07
3.4357478e-07
2.9879325e-05
1.2247786e-07
3.2769851e-07
2.960802e-05
1.2016733e-07
3.1295272e-07
2.934798e-05
1.1803379e-07
2.9922356e-07
2.9098408e-05
1.1605461e-07
2.864114e-07
2.885859e-05
1.142098e-07
2.7442906e-07
2.8627882e-05
1.1248191e-07
2.6319999e-07
2.8405701e-05
1.1085559e-07
2.5265684e-07
2.819152e-05
1.0931757e-07
2.427402e-07
2.7984859e-05
1.0785649e-07
2.3339753e-07
2.7785279e-05
1.0646278e-07
2.2458212e-07
2.7592378e-05
1.0512868e-07
2.1625214e-07
2.740579e-05
1.0384734e-07
2.0837035e-07
2.7225174e-05
1.0261118e-07
2.0090359e-07
2.705022e-05
1.0140746e-07
1.9382258e-07
2.6880641e-05
1.0023383e-07
1.8710043e-07
2.6716166e-05
9.9092357e-08
1.8071225e-07
2.6556546e-05
9.7980019e-08
1.7463558e-07
2.6401548e-05
9.6892539e-08
1.6885015e-07
2.6250957e-05
9.5827104e-08
1.6333738e-07
2.610457e-05
9.4781689e-08
1.5808042e-07
2.5962199e-05
9.3754745e-08
1.530636e-07
2.5823666e-05
9.2744886e-08
1.4827259e-07
2.5688804e-05
9.1750996e-08
1.4369412e-07
2.5557458e-05
9.0771714e-08
1.3931596e-07
2.5429481e-05
8.9805175e-08
1.3512693e-07
2.5304734e-05
8.8851486e-08
1.3111645e-07
2.5183087e-05
8.7911218e-08
1.2727466e-07
2.5064416e-05
8.6983939e-08
1.2359242e-07
2.4948604e-05
8.6068952e-08
1.200612e-07
2.4835542e-05
8.5165811e-08
1.1667302e-07
2.4725124e-05
8.4274309e-08
1.1342044e-07
2.4617252e-05
8.3394287e-08
1.1029656e-07
2.4511832e-05
8.2525478e-08
1.0729479e-07
2.4408775e-05
8.1667765e-08
1.0440902e-07
2.4307997e-05
8.0820978e-08
1.0163345e-07
2.4209416e-05
7.9985001e-08
9.8962656e-08
2.4112956e-05
7.9159744e-08
9.6391562e-08
2.4018546e-05
7.8345026e-08
9.3915293e-08
2.3926115e-05
7.754069e-08
9.152932e-08
2.3835598e-05
7.6746544e-08
8.9229262e-08
2.3746933e-05
7.5962342e-08
8.7011039e-08
2.3660059e-05
7.5187641e-08
8.4870689e-08
2.3574922e-05
7.442197e-08
8.2804542e-08
2.3491466e-05
7.3664629e-08
8.0808946e-08
2.3409641e-05
7.2914654e-08
7.8880395e-08
2.33294e-05
7.2170704e-08
7.701553e-08
2.3250698e-05
7.1431333e-08
7.5211e-08
2.3173492e-05
7.0694883e-08
7.3463612e-08
2.3097745e-05
6.9960217e-08
7.1770049e-08
2.3023418e-05
6.9227989e-08
7.0127028e-08
2.2950477e-05
6.8503545e-08
6.8531198e-08
2.2878889e-05
6.780289e-08
6.6979723e-08
2.2808619e-05
6.7165053e-08
6.5471564e-08
2.2739625e-05
6.6675255e-08
6.4013354e-08
2.267185e-05
6.6507054e-08
6.26423e-08
2.2605149e-05
6.6990718e-08
6.1532382e-08
2.2538888e-05
6.8686026e-08
6.1499893e-08
2.2471121e-05
7.2226952e-08
6.4845103e-08
7.6722842e-08
9.8461318e-08
0.0001051979
1.3340884e-06
6.4961221e-06
9.9496561e-05
2.3731022e-06
6.6011947e-06
9.4262459e-05
2.9019224e-06
6.1610799e-06
8.9251186e-05
3.0856642e-06
5.9094196e-06
8.4493498e-05
3.0947347e-06
5.6224614e-06
8.0033635e-05
2.9846656e-06
5.265134e-06
7.5876907e-05
2.7790155e-06
4.8792667e-06
7.2014635e-05
2.5106843e-06
4.4927894e-06
6.8436293e-05
2.2128729e-06
4.1169489e-06
6.5131387e-05
1.9107259e-06
3.7575291e-06
6.208941e-05
1.621732e-06
3.4186596e-06
5.9299432e-05
1.3573877e-06
3.1029661e-06
5.6749589e-05
1.1240344e-06
2.8116386e-06
5.4426788e-05
9.2377944e-07
2.5448158e-06
5.2316754e-05
7.5572799e-07
2.3019466e-06
5.0404313e-05
6.1717854e-07
2.0820302e-06
4.8673788e-05
5.0454351e-07
1.8837772e-06
4.7109414e-05
4.1397181e-07
1.7057274e-06
4.5695713e-05
3.4173649e-07
1.5463363e-06
4.4417792e-05
2.8445144e-07
1.4040359e-06
4.3261575e-05
2.3917113e-07
1.277278e-06
4.2213952e-05
2.0341501e-07
1.1645652e-06
4.1262871e-05
1.7514742e-07
1.0644719e-06
4.039737e-05
1.5273233e-07
9.75659e-07
3.9607583e-05
1.3487527e-07
8.9688144e-07
3.8884688e-05
1.2055568e-07
8.2701639e-07
3.8220848e-05
1.0901094e-07
7.6501857e-07
3.7609155e-05
9.9633852e-08
7.0994487e-07
3.7043542e-05
9.1977481e-08
6.6095089e-07
3.6518702e-05
8.5705846e-08
6.1728288e-07
3.6030009e-05
8.0552378e-08
5.7827309e-07
3.5573433e-05
7.6308271e-08
5.4333411e-07
3.5145475e-05
7.2811241e-08
5.1195026e-07
3.4743091e-05
6.9934116e-08
4.8367023e-07
3.4363641e-05
6.7575451e-08
4.5810065e-07
3.4004828e-05
6.5652903e-08
4.3489997e-07
3.3664659e-05
6.409858e-08
4.1377211e-07
3.3341393e-05
6.2855915e-08
3.9446095e-07
3.3033513e-05
6.1877013e-08
3.7674527e-07
3.2739693e-05
6.1121109e-08
3.6043424e-07
3.2458768e-05
6.0553073e-08
3.4536328e-07
3.2189712e-05
6.0142671e-08
3.3139057e-07
3.1931622e-05
5.9863655e-08
3.1839377e-07
3.1683696e-05
5.9693144e-08
3.0626737e-07
3.1445219e-05
5.9611205e-08
2.9492013e-07
3.1215555e-05
5.9600635e-08
2.8427316e-07
3.0994132e-05
5.9646542e-08
2.7425807e-07
3.0780436e-05
5.9736162e-08
2.648154e-07
3.0574002e-05
5.9858641e-08
2.5589331e-07
3.0374407e-05
6.0004927e-08
2.4744661e-07
3.0181267e-05
6.0167637e-08
2.3943547e-07
2.9994229e-05
6.0341244e-08
2.3182487e-07
2.9812971e-05
6.0521806e-08
2.2458373e-07
2.9637193e-05
6.0704462e-08
2.1768456e-07
2.9466629e-05
6.0867286e-08
2.1110459e-07
2.9301024e-05
6.1016993e-08
2.048218e-07
2.914014e-05
6.1160867e-08
1.988157e-07
2.8983756e-05
6.1294949e-08
1.9306841e-07
2.8831669e-05
6.1415474e-08
1.8756391e-07
2.8683688e-05
6.152096e-08
1.8228763e-07
2.8539633e-05
6.1610559e-08
1.7722635e-07
2.8399336e-05
6.1683757e-08
1.7236782e-07
2.8262639e-05
6.174052e-08
1.6770088e-07
2.8129394e-05
6.1780677e-08
1.6321519e-07
2.7999461e-05
6.1803887e-08
1.5890125e-07
2.7872709e-05
6.1807342e-08
1.5475038e-07
2.7749012e-05
6.1793569e-08
1.5075445e-07
2.7628253e-05
6.1764839e-08
1.4690558e-07
2.7510319e-05
6.1720989e-08
1.4319662e-07
2.7395105e-05
6.1662097e-08
1.3962084e-07
2.728251e-05
6.158862e-08
1.3617199e-07
2.7172439e-05
6.1501061e-08
1.3284423e-07
2.7064802e-05
6.1399964e-08
1.2963194e-07
2.6959511e-05
6.1285954e-08
1.2652992e-07
2.6856486e-05
6.1159515e-08
1.2353327e-07
2.6755649e-05
6.1021313e-08
1.206373e-07
2.6656924e-05
6.0871859e-08
1.1783765e-07
2.6560242e-05
6.0711708e-08
1.1513015e-07
2.6465535e-05
6.0541372e-08
1.1251078e-07
2.6372738e-05
6.036134e-08
1.0997579e-07
2.6281791e-05
6.0171931e-08
1.0752159e-07
2.6192636e-05
5.9973545e-08
1.0514472e-07
2.6105215e-05
5.9766288e-08
1.0284181e-07
2.6019477e-05
5.9550259e-08
1.0060973e-07
2.5935371e-05
5.9325151e-08
9.8445294e-08
2.585285e-05
5.9090482e-08
9.6345395e-08
2.5771868e-05
5.8845497e-08
9.4306957e-08
2.5692384e-05
5.8588983e-08
9.2326736e-08
2.5614357e-05
5.8319812e-08
9.040142e-08
2.5537753e-05
5.8037107e-08
8.8527327e-08
2.5462539e-05
5.7741652e-08
8.6700212e-08
2.5388689e-05
5.7438419e-08
8.4915177e-08
2.5316184e-05
5.7141432e-08
8.3166633e-08
2.5245017e-05
5.6882573e-08
8.1449623e-08
2.51752e-05
5.6726031e-08
7.9765821e-08
2.510677e-05
5.6787872e-08
7.8149166e-08
2.5039729e-05
5.7251586e-08
7.678098e-08
2.4973573e-05
5.8330913e-08
7.6510202e-08
2.4906079e-05
5.9989458e-08
7.973217e-08
6.0714979e-08
1.1287821e-07
0.00010503672
9.0789369e-07
6.5005614e-06
9.9140653e-05
1.6524914e-06
6.6166802e-06
9.3788329e-05
2.0825242e-06
6.1717217e-06
8.8708526e-05
2.2549373e-06
5.91053e-06
8.3909682e-05
2.278404e-06
5.6151748e-06
7.9437109e-05
2.2074821e-06
5.2497564e-06
7.5296201e-05
2.0645348e-06
4.8553893e-06
7.1474034e-05
1.8722543e-06
4.4605969e-06
6.7955013e-05
1.6547667e-06
4.0771269e-06
6.4723621e-05
1.4313505e-06
3.7107669e-06
6.1764423e-05
1.2154297e-06
3.3655007e-06
5.9062056e-05
1.015864e-06
3.0438912e-06
5.6601108e-05
8.3782745e-07
2.7471548e-06
5.4365944e-05
6.8344648e-07
2.475497e-06
5.2340648e-05
5.5258527e-07
2.2284383e-06
5.0509125e-05
4.4366549e-07
2.0050361e-06
4.8855299e-05
3.5433456e-07
1.8040352e-06
4.7363353e-05
2.8193589e-07
1.6239821e-06
4.6017963e-05
2.2381347e-07
1.4633127e-06
4.4804503e-05
1.7749384e-07
1.3204181e-06
4.3709199e-05
1.4078088e-07
1.1936935e-06
4.2719248e-05
1.1179154e-07
1.081575e-06
4.1822875e-05
8.8954504e-08
9.8256582e-07
4.1009364e-05
7.098796e-08
8.9525473e-07
4.0269054e-05
5.6861797e-08
8.1832382e-07
3.9593306e-05
4.5719097e-08
7.5058475e-07
3.8974405e-05
3.6977836e-08
6.9093439e-07
3.8405585e-05
3.0067363e-08
6.383863e-07
3.7880869e-05
2.4650848e-08
5.9204238e-07
3.7395029e-05
2.0439969e-08
5.5110606e-07
3.6943514e-05
1.7190265e-08
5.1487714e-07
3.6522366e-05
1.4716724e-08
4.8273957e-07
3.6128148e-05
1.2874763e-08
4.5415388e-07
3.5757883e-05
1.154993e-08
4.2864945e-07
3.5408991e-05
1.0650769e-08
4.0581704e-07
3.5079238e-05
1.0103609e-08
3.8530228e-07
3.4766689e-05
9.8482437e-09
3.6679878e-07
3.4469668e-05
9.8351279e-09
3.5004234e-07
3.4186716e-05
1.0022924e-08
3.3480552e-07
3.3916567e-05
1.0377026e-08
3.2089288e-07
3.3658116e-05
1.0868059e-08
3.0813657e-07
3.3410395e-05
1.1470936e-08
2.9639283e-07
3.3172556e-05
1.2164249e-08
2.8553828e-07
3.2943852e-05
1.2929283e-08
2.7546718e-07
3.2723625e-05
1.3750168e-08
2.6608893e-07
3.2511286e-05
1.4613107e-08
2.5732571e-07
3.2306316e-05
1.550623e-08
2.4911067e-07
3.2108246e-05
1.6419587e-08
2.413862e-07
3.1916658e-05
1.7344615e-08
2.3410269e-07
3.1731171e-05
1.8274324e-08
2.2721713e-07
3.1551444e-05
1.9203178e-08
2.2069214e-07
3.1377162e-05
2.0127708e-08
2.1449509e-07
3.1208038e-05
2.1048631e-08
2.0859683e-07
3.10438e-05
2.1972749e-08
2.0297056e-07
3.0884232e-05
2.2827855e-08
1.9760737e-07
3.0729103e-05
2.3662993e-08
1.9248228e-07
3.05782e-05
2.4490001e-08
1.8757382e-07
3.0431331e-05
2.529628e-08
1.8286763e-07
3.0288318e-05
2.6077976e-08
1.7835075e-07
3.0148994e-05
2.6834292e-08
1.7401106e-07
3.0013202e-05
2.7564689e-08
1.6983753e-07
2.9880797e-05
2.8268978e-08
1.6582024e-07
2.975164e-05
2.8947446e-08
1.6195012e-07
2.96256e-05
2.9600788e-08
1.5821898e-07
2.9502557e-05
3.0228566e-08
1.5461922e-07
2.9382396e-05
3.0823608e-08
1.5114468e-07
2.9265007e-05
3.1393121e-08
1.4778878e-07
2.9150287e-05
3.1939598e-08
1.4454539e-07
2.9038137e-05
3.2461867e-08
1.4140899e-07
2.8928465e-05
3.2960058e-08
1.3837462e-07
2.8821181e-05
3.3434696e-08
1.354375e-07
2.8716203e-05
3.3886365e-08
1.3259329e-07
2.8613449e-05
3.4315531e-08
1.2983787e-07
2.8512845e-05
3.472287e-08
1.2716738e-07
2.8414317e-05
3.5108992e-08
1.2457818e-07
2.8317797e-05
3.5474446e-08
1.2206682e-07
2.8223219e-05
3.5819886e-08
1.1963006e-07
2.813052e-05
3.6145922e-08
1.1726491e-07
2.803964e-05
3.645307e-08
1.149684e-07
2.7950522e-05
3.6741868e-08
1.1273773e-07
2.7863111e-05
3.7012828e-08
1.1057027e-07
2.7777354e-05
3.7266224e-08
1.0846343e-07
2.7693204e-05
3.7502474e-08
1.0641476e-07
2.761061e-05
3.772161e-08
1.0442175e-07
2.752953e-05
3.7923568e-08
1.0248202e-07
2.7449919e-05
3.8108004e-08
1.0059307e-07
2.7371738e-05
3.8274283e-08
9.8752305e-08
2.7294949e-05
3.8421559e-08
9.6956885e-08
2.7219516e-05
3.8548729e-08
9.5203623e-08
2.714541e-05
3.8655116e-08
9.3488637e-08
2.7072603e-05
3.8741145e-08
9.1806968e-08
2.7001079e-05
3.8810268e-08
9.0152329e-08
2.6930832e-05
3.8872138e-08
8.851658e-08
2.6861876e-05
3.8947392e-08
8.6890516e-08
2.679426e-05
3.9073527e-08
8.5269165e-08
2.6728065e-05
3.9306954e-08
8.3675941e-08
2.6663337e-05
3.9708327e-08
8.2271165e-08
2.659956e-05
4.0271989e-08
8.1836186e-08
2.6534295e-05
4.0697999e-08
8.4555746e-08
3.9620841e-08
1.1507129e-07
0.00010494757
5.6811079e-07
6.5033076e-06
9.8925416e-05
1.0462983e-06
6.6283516e-06
9.3480449e-05
1.3439844e-06
6.1835065e-06
8.8341777e-05
1.4751324e-06
5.9184763e-06
8.3502084e-05
1.4993911e-06
5.6187065e-06
7.9004057e-05
1.4572411e-06
5.2482679e-06
7.4853978e-05
1.3667382e-06
4.8478757e-06
7.1037378e-05
1.2423973e-06
4.4464569e-06
6.7536063e-05
1.0997693e-06
4.0563127e-06
6.4331998e-05
9.5192359e-07
3.683491e-06
6.1407318e-05
8.0805755e-07
3.3320524e-06
5.8744339e-05
6.7422204e-07
3.0046209e-06
5.6325632e-05
5.5404398e-07
2.7024907e-06
5.4133973e-05
4.4916748e-07
2.4259383e-06
5.2152298e-05
3.5972403e-07
2.174536e-06
5.0363747e-05
2.8484514e-07
1.9473718e-06
4.875178e-05
2.2310006e-07
1.7432015e-06
4.7300339e-05
1.7281168e-07
1.5605646e-06
4.5994012e-05
1.3226572e-07
1.3978748e-06
4.4818177e-05
9.9840016e-08
1.2534891e-06
4.3759121e-05
7.407562e-08
1.1257614e-06
4.2804123e-05
5.3707647e-08
1.0130814e-06
4.1941503e-05
3.7671225e-08
9.1390379e-07
4.1160627e-05
2.5096465e-08
8.2676735e-07
4.0451891e-05
1.5294173e-08
7.5030389e-07
3.980679e-05
7.5281549e-09
6.8329175e-07
3.9217543e-05
1.6727422e-09
6.2455205e-07
3.8677513e-05
-3.0331285e-09
5.7313082e-07
3.8180739e-05
-6.6486886e-09
5.2807352e-07
3.7722004e-05
-9.3595025e-09
4.8853451e-07
3.7296777e-05
-1.1371803e-08
4.5378928e-07
3.6901112e-05
-1.2818233e-08
4.231991e-07
3.6531588e-05
-1.3805325e-08
3.9620475e-07
3.6185236e-05
-1.4417492e-08
3.7231875e-07
3.5859491e-05
-1.4721882e-08
3.5111777e-07
3.5552132e-05
-1.4772634e-08
3.3223578e-07
3.5261237e-05
-1.4613872e-08
3.1535728e-07
3.4985143e-05
-1.4282166e-08
3.0021088e-07
3.472241e-05
-1.3807713e-08
2.8656374e-07
3.4471787e-05
-1.3215903e-08
2.742163e-07
3.4232185e-05
-1.2528207e-08
2.6299769e-07
3.4002657e-05
-1.1762798e-08
2.5276172e-07
3.3782373e-05
-1.0935253e-08
2.4338337e-07
3.3570606e-05
-1.0058764e-08
2.3475558e-07
3.3366714e-05
-9.1447214e-09
2.2678671e-07
3.3170132e-05
-8.2028135e-09
2.1939834e-07
3.2980356e-05
-7.2412353e-09
2.12523e-07
3.279694e-05
-6.2668827e-09
2.0610281e-07
3.2619482e-05
-5.2855351e-09
2.0008783e-07
3.2447623e-05
-4.3018114e-09
1.9443479e-07
3.228104e-05
-3.3190505e-09
1.8910588e-07
3.2119438e-05
-2.3383319e-09
1.8406735e-07
3.1962554e-05
-1.3530481e-09
1.7928649e-07
3.1810075e-05
-2.7633218e-10
1.7472765e-07
3.1661878e-05
5.8583265e-10
1.7043904e-07
3.1517732e-05
1.4356003e-09
1.6637294e-07
3.1377429e-05
2.3038122e-09
1.6248964e-07
3.1240792e-05
3.1586592e-09
1.5877485e-07
3.1107656e-05
3.996968e-09
1.5521719e-07
3.0977867e-05
4.8171508e-09
1.5180545e-07
3.0851284e-05
5.6179315e-09
1.4852965e-07
3.0727773e-05
6.3990543e-09
1.4538075e-07
3.0607209e-05
7.1609432e-09
1.4235053e-07
3.0489473e-05
7.9059461e-09
1.394312e-07
3.037445e-05
8.635774e-09
1.3661577e-07
3.0262049e-05
9.3206782e-09
1.3390396e-07
3.0152163e-05
9.9938172e-09
1.3128568e-07
3.0044697e-05
1.0650383e-08
1.287551e-07
2.9939564e-05
1.1286724e-08
1.2630825e-07
2.983668e-05
1.1903183e-08
1.2394086e-07
2.9735965e-05
1.2500145e-08
1.2164883e-07
2.9637345e-05
1.3077871e-08
1.1942844e-07
2.9540748e-05
1.3636703e-08
1.1727617e-07
2.9446105e-05
1.4176985e-08
1.1518882e-07
2.9353352e-05
1.4699146e-08
1.1316336e-07
2.9262425e-05
1.5203521e-08
1.11197e-07
2.9173268e-05
1.5690463e-08
1.0928705e-07
2.9085822e-05
1.6160354e-08
1.0743109e-07
2.9000035e-05
1.6613565e-08
1.0562663e-07
2.8915855e-05
1.7050403e-08
1.038715e-07
2.8833233e-05
1.7471085e-08
1.0216359e-07
2.8752123e-05
1.7875975e-08
1.0050082e-07
2.8672479e-05
1.8265089e-08
9.8881105e-08
2.8594259e-05
1.8638528e-08
9.7302477e-08
2.8517424e-05
1.8996203e-08
9.5762943e-08
2.8441934e-05
1.9337796e-08
9.4260309e-08
2.8367753e-05
1.9662816e-08
9.2792335e-08
2.8294848e-05
1.997047e-08
9.1356268e-08
2.8223187e-05
2.0259985e-08
8.9948865e-08
2.8152746e-05
2.0530695e-08
8.8565925e-08
2.8083503e-05
2.0782619e-08
8.7201797e-08
2.8015447e-05
2.1017539e-08
8.5848688e-08
2.7948582e-05
2.1240717e-08
8.4495834e-08
2.7882937e-05
2.146272e-08
8.3129512e-08
2.7818574e-05
2.169995e-08
8.1736526e-08
2.7755588e-05
2.196925e-08
8.0324336e-08
2.7694014e-05
2.226615e-08
7.9016103e-08
2.7633299e-05
2.2506279e-08
7.8480654e-08
2.7571004e-05
2.2393423e-08
8.0599461e-08
2.0993078e-08
1.0779943e-07
0.00010489986
2.7443378e-07
6.5049155e-06
9.8802772e-05
5.0716631e-07
6.6362236e-06
9.329591e-05
6.5854973e-07
6.1922972e-06
8.8116302e-05
7.2902545e-07
5.9257148e-06
8.3248198e-05