/*--------------------------------*- C++ -*----------------------------------*\
  =========                 |
  \\      /  F ield         | OpenFOAM: The Open Source CFD Toolbox
   \\    /   O peration     | Website:  https://openfoam.org
    \\  /    A nd           | Version:  7
     \\/     M anipulation  |
\*---------------------------------------------------------------------------*/
FoamFile
{
    version     2.0;
    format      ascii;
    class       surfaceScalarField;
    location    "2850/water";
    object      phi;
}
// * * * * * * * * * * * * * * * * * * * * * * * * * * * * * * * * * * * * * //

dimensions      [1 0 -1 0 0 0 0];

internalField   nonuniform List<scalar> 
156660
(
9.9057239e-05
6.0010402e-06
6.0528092e-06
8.6847497e-05
6.0555113e-06
6.1542307e-06
7.5687891e-05
5.5111362e-06
5.6484701e-06
6.5441704e-05
5.0404181e-06
5.2057689e-06
5.6267661e-05
4.4956436e-06
4.6783991e-06
4.8318019e-05
3.8797648e-06
4.0698777e-06
4.1624776e-05
3.2524448e-06
3.4407981e-06
3.6124897e-05
2.660462e-06
2.839417e-06
3.1692235e-05
2.1345127e-06
2.2981489e-06
2.8162841e-05
1.6926975e-06
1.8366964e-06
2.5361437e-05
1.3399933e-06
1.4614113e-06
2.3124664e-05
1.0698477e-06
1.1669256e-06
2.1315127e-05
8.6875419e-07
9.4078227e-07
1.9825714e-05
7.2110065e-07
7.6831273e-07
1.8577278e-05
6.1248245e-07
6.3595306e-07
1.7513255e-05
5.3125217e-07
5.3277148e-07
1.6593744e-05
4.6879724e-07
4.5071347e-07
1.5790433e-05
4.1913721e-07
3.8417383e-07
1.5082784e-05
3.7829069e-07
3.2935849e-07
1.4455417e-05
3.4367127e-07
2.8369564e-07
1.3896409e-05
3.1361408e-07
2.4539334e-07
1.339622e-05
2.8704448e-07
2.1314448e-07
1.2947015e-05
2.6326032e-07
1.8594509e-07
1.2542237e-05
2.4179364e-07
1.6298463e-07
1.2176318e-05
2.223221e-07
1.4359687e-07
1.1844484e-05
2.0461481e-07
1.2721878e-07
1.1542609e-05
1.8849496e-07
1.1337974e-07
1.1267116e-05
1.7381576e-07
1.0167794e-07
1.1014892e-05
1.6046271e-07
9.176087e-08
1.0783252e-05
1.4833968e-07
8.3300621e-08
1.0569851e-05
1.3734902e-07
7.6052135e-08
1.0372614e-05
1.2738865e-07
6.9848312e-08
1.0189731e-05
1.1836805e-07
6.4514821e-08
1.001963e-05
1.1020445e-07
5.9896631e-08
9.8609388e-06
1.0281919e-07
5.5871661e-08
9.7124595e-06
9.6137947e-08
5.2341351e-08
9.5731439e-06
9.0091161e-08
4.9224334e-08
9.4420759e-06
8.461446e-08
4.645357e-08
9.3184531e-06
7.9648692e-08
4.397412e-08
9.2015723e-06
7.513972e-08
4.1741073e-08
9.0908166e-06
7.1038175e-08
3.9717565e-08
8.9856432e-06
6.7301139e-08
3.7872321e-08
8.8855708e-06
6.3894237e-08
3.6178182e-08
8.7901757e-06
6.0780122e-08
3.4614935e-08
8.6990829e-06
5.792619e-08
3.3166663e-08
8.611959e-06
5.530374e-08
3.1820114e-08
8.5285072e-06
5.2887462e-08
3.0564421e-08
8.4484618e-06
5.065507e-08
2.9390276e-08
8.3715848e-06
4.858704e-08
2.8290026e-08
8.2976614e-06
4.6666175e-08
2.7257204e-08
8.2264975e-06
4.4877491e-08
2.6286417e-08
8.1579202e-06
4.3208783e-08
2.5368534e-08
8.0917731e-06
4.1649042e-08
2.4498049e-08
8.0279108e-06
4.0186987e-08
2.3675373e-08
7.9662005e-06
3.8812678e-08
2.2897532e-08
7.9065219e-06
3.7518386e-08
2.2160224e-08
7.8487639e-06
3.6297828e-08
2.1460142e-08
7.7928242e-06
3.5145153e-08
2.079458e-08
7.7386083e-06
3.4054649e-08
2.0161144e-08
7.6860293e-06
3.3021354e-08
1.9557693e-08
7.6350062e-06
3.2040816e-08
1.8982246e-08
7.5854641e-06
3.110909e-08
1.8433055e-08
7.537333e-06
3.0222606e-08
1.7908485e-08
7.4905478e-06
2.9378245e-08
1.7406995e-08
7.4450476e-06
2.8573019e-08
1.6927199e-08
7.4007755e-06
2.7804249e-08
1.6467783e-08
7.3576783e-06
2.7069609e-08
1.602764e-08
7.3157056e-06
2.6367074e-08
1.5605603e-08
7.2748103e-06
2.5694648e-08
1.520068e-08
7.2349479e-06
2.5050564e-08
1.4811838e-08
7.1960766e-06
2.4433097e-08
1.4438187e-08
7.158157e-06
2.384069e-08
1.4078908e-08
7.1211518e-06
2.3271911e-08
1.3733288e-08
7.0850258e-06
2.2725505e-08
1.3400507e-08
7.0497456e-06
2.2200231e-08
1.3079958e-08
7.0152798e-06
2.1694939e-08
1.2770927e-08
6.9815985e-06
2.1208578e-08
1.2472747e-08
6.9486733e-06
2.0740235e-08
1.2184937e-08
6.9164775e-06
2.0288991e-08
1.1906803e-08
6.8849857e-06
1.985398e-08
1.1637831e-08
6.8541739e-06
1.9434357e-08
1.1377463e-08
6.8240193e-06
1.9029456e-08
1.1125146e-08
6.7945006e-06
1.8638496e-08
1.0880253e-08
6.7655975e-06
1.8260764e-08
1.0642314e-08
6.7372912e-06
1.789554e-08
1.0410766e-08
6.709564e-06
1.7542095e-08
1.0185083e-08
6.6823995e-06
1.7199653e-08
9.9648643e-09
6.6557824e-06
1.686728e-08
9.7498125e-09
6.6296983e-06
1.6544126e-08
9.5399748e-09
6.6041331e-06
1.6229274e-08
9.3360128e-09
6.5790714e-06
1.5921998e-08
9.1396788e-09
6.554494e-06
1.5622319e-08
8.9550879e-09
6.5303708e-06
1.5332569e-08
8.7906915e-09
6.5066467e-06
1.5060479e-08
8.6636273e-09
6.4832094e-06
1.4827811e-08
8.6095136e-09
6.4598103e-06
1.469305e-08
8.7060124e-09
6.4358387e-06
1.4826411e-08
9.1451348e-09
6.4096302e-06
1.5741751e-08
1.046675e-08
6.3782854e-06
1.8026565e-08
1.3318232e-08
3.2300204e-08
2.7923568e-08
0.00010646494
4.1872385e-06
6.4599816e-06
0.0001002019
5.695418e-06
6.6231353e-06
9.3659588e-05
5.7790389e-06
6.2744098e-06
8.7011589e-05
5.6514782e-06
6.0369387e-06
8.0422927e-05
5.366912e-06
5.7173941e-06
7.4094022e-05
4.9022832e-06
5.3063862e-06
6.8167026e-05
4.3278135e-06
4.8516272e-06
6.2722565e-05
3.717891e-06
4.387032e-06
5.7799049e-05
3.1243144e-06
3.9337144e-06
5.3403345e-05
2.5820688e-06
3.5063328e-06
4.9517402e-05
2.1121062e-06
3.1138299e-06
4.6105482e-05
1.7220197e-06
2.7597474e-06
4.3121558e-05
1.4089355e-06
2.4437429e-06
4.0515558e-05
1.1637552e-06
2.163346e-06
3.8237948e-05
9.7485849e-07
1.9152336e-06
3.6242683e-05
8.3055977e-07
1.6959573e-06
3.4488759e-05
7.2043695e-07
1.5022849e-06
3.2940716e-05
6.3586294e-07
1.3313172e-06
3.1568463e-05
5.7005004e-07
1.1804931e-06
3.0346733e-05
5.1784898e-07
1.0475522e-06
2.9254398e-05
4.7545955e-07
9.3049034e-07
2.8273782e-05
4.4013956e-07
8.2752022e-07
2.7390054e-05
4.0994891e-07
7.3704009e-07
2.6590699e-05
3.8353957e-07
6.5760858e-07
2.5865102e-05
3.5998891e-07
5.8793068e-07
2.5204197e-05
3.3867634e-07
5.268426e-07
2.4600205e-05
3.1918361e-07
4.7330347e-07
2.4046429e-05
3.0120194e-07
4.2639018e-07
2.3537073e-05
2.8455208e-07
3.8526717e-07
2.3067119e-05
2.6911102e-07
3.4918242e-07
2.2632208e-05
2.5478169e-07
3.1747786e-07
2.2228528e-05
2.4147382e-07
2.8959532e-07
2.1852744e-05
2.2911077e-07
2.6504126e-07
2.1501947e-05
2.1762894e-07
2.4337257e-07
2.1173591e-05
2.069695e-07
2.242057e-07
2.0865444e-05
1.9707565e-07
2.0720868e-07
2.0575549e-05
1.8789251e-07
1.9209397e-07
2.0302183e-05
1.793672e-07
1.7861342e-07
2.0043829e-05
1.7144912e-07
1.6655322e-07
1.979915e-05
1.6408981e-07
1.5572945e-07
1.956696e-05
1.572438e-07
1.4598403e-07
1.934621e-05
1.5086893e-07
1.371822e-07
1.9135969e-05
1.4492651e-07
1.2920881e-07
1.8935407e-05
1.3937907e-07
1.2196306e-07
1.8743783e-05
1.3419232e-07
1.1535765e-07
1.8560435e-05
1.2933508e-07
1.0931728e-07
1.8384766e-05
1.2477911e-07
1.0377715e-07
1.8216241e-05
1.204985e-07
9.8681266e-08
1.8054377e-05
1.164701e-07
9.3981315e-08
1.7898734e-05
1.1267294e-07
8.963539e-08
1.7748917e-05
1.0908824e-07
8.5606989e-08
1.7604563e-05
1.0570004e-07
8.1862417e-08
1.7465345e-05
1.0249339e-07
7.8373293e-08
1.7330962e-05
9.9453005e-08
7.5117013e-08
1.7201138e-05
9.6564415e-08
7.2072745e-08
1.7075619e-05
9.3816626e-08
6.9221158e-08
1.695417e-05
9.1201097e-08
6.6545102e-08
1.6836577e-05
8.8709089e-08
6.4029551e-08
1.6722638e-05
8.6331967e-08
6.1661069e-08
1.661217e-05
8.4061742e-08
5.9427711e-08
1.6505001e-05
8.1891506e-08
5.7318822e-08
1.640097e-05
7.9814936e-08
5.5324835e-08
1.6299929e-05
7.7826154e-08
5.3437132e-08
1.620174e-05
7.5919882e-08
5.1647938e-08
1.6106272e-05
7.4091025e-08
4.9950133e-08
1.6013404e-05
7.2334972e-08
4.8337382e-08
1.5923022e-05
7.0647707e-08
4.6803841e-08
1.5835019e-05
6.9025743e-08
4.5344253e-08
1.5749294e-05
6.7465542e-08
4.3953707e-08
1.5665753e-05
6.5963772e-08
4.26277e-08
1.5584307e-05
6.4517379e-08
4.1362161e-08
1.5504871e-05
6.31234e-08
4.0153337e-08
1.5427365e-05
6.1779286e-08
3.8997761e-08
1.5351716e-05
6.048252e-08
3.7892268e-08
1.5277852e-05
5.9230826e-08
3.6833853e-08
1.5205705e-05
5.8021984e-08
3.5819742e-08
1.5135212e-05
5.6853993e-08
3.4847347e-08
1.5066313e-05
5.5724967e-08
3.3914326e-08
1.499895e-05
5.4633099e-08
3.3018405e-08
1.493307e-05
5.3576722e-08
3.2157445e-08
1.4868621e-05
5.2554183e-08
3.1329412e-08
1.4805554e-05
5.1563926e-08
3.0532459e-08
1.4743823e-05
5.0604479e-08
2.9764684e-08
1.4683386e-05
4.967429e-08
2.9024367e-08
1.4624199e-05
4.8771812e-08
2.8309851e-08
1.4566226e-05
4.7895474e-08
2.7619536e-08
1.4509431e-05
4.7043488e-08
2.6951974e-08
1.4453778e-05
4.6214085e-08
2.6305742e-08
1.4399237e-05
4.5405385e-08
2.5679886e-08
1.4345777e-05
4.4615693e-08
2.5073759e-08
1.4293367e-05
4.3844271e-08
2.4487683e-08
1.4241972e-05
4.3092893e-08
2.392374e-08
1.4191548e-05
4.2369893e-08
2.3387156e-08
1.4142019e-05
4.1699302e-08
2.2889638e-08
1.4093249e-05
4.1141617e-08
2.2456647e-08
1.4044951e-05
4.0844649e-08
2.2146561e-08
1.3996485e-05
4.1169214e-08
2.2123047e-08
1.3946229e-05
4.3012321e-08
2.2985395e-08
1.389015e-05
4.8540255e-08
2.5565823e-08
6.3281583e-08
5.0000889e-08
0.00010603565
2.7876425e-06
6.4750379e-06
0.00010074799
4.4145412e-06
6.5685292e-06
9.5493515e-05
4.8594027e-06
6.1741158e-06
9.0256432e-05
4.930369e-06
5.9581921e-06
8.5101366e-05
4.8311767e-06
5.6908011e-06
8.0102875e-05
4.5561761e-06
5.3445981e-06
7.5322251e-05
4.1469521e-06
4.9614853e-06
7.0803266e-05
3.6678925e-06
4.5689837e-06
6.6576264e-05
3.1701903e-06
4.1811255e-06
6.2660725e-05
2.6900109e-06
3.8075976e-06
5.9065443e-05
2.2519318e-06
3.4554566e-06
5.5788936e-05
1.8697304e-06
3.1287958e-06
5.2820978e-05
1.5477473e-06
2.8291458e-06
5.014479e-05
1.2836302e-06
2.5563139e-06
4.7739304e-05
1.07123e-06
2.3091141e-06
4.5581183e-05
9.0281504e-07
2.0858661e-06
4.3646423e-05
7.704878e-07
1.884709e-06
4.1911533e-05
6.6697374e-07
1.7037793e-06
4.0354306e-05
5.8598197e-07
1.541295e-06
3.8954268e-05
5.2230224e-07
1.3955849e-06
3.769288e-05
4.7175607e-07
1.265091e-06
3.6553576e-05
4.3107986e-07
1.1483634e-06
3.552169e-05
3.9778207e-07
1.0440533e-06
3.4584322e-05
3.6999884e-07
9.5090831e-07
3.3730181e-05
3.4635984e-07
8.6777017e-07
3.2949411e-05
3.2587764e-07
7.9356871e-07
3.2233419e-05
3.0784048e-07
7.2733485e-07
3.1574711e-05
2.9172983e-07
6.6818103e-07
3.0966769e-05
2.7719263e-07
6.1530127e-07
3.0403928e-05
2.6398103e-07
5.6797019e-07
2.9881258e-05
2.5190851e-07
5.2554318e-07
2.9394455e-05
2.4082715e-07
4.8745002e-07
2.8939761e-05
2.3062158e-07
4.5318327e-07
2.8513895e-05
2.2120153e-07
4.2229388e-07
2.8113985e-05
2.1249193e-07
3.9438674e-07
2.7737518e-05
2.0442798e-07
3.6911492e-07
2.7382285e-05
1.9695193e-07
3.4617385e-07
2.7046344e-05
1.9001178e-07
3.2529682e-07
2.6727982e-05
1.8355992e-07
3.0625045e-07
2.6425689e-05
1.7755274e-07
2.8883087e-07
2.6138123e-05
1.7195002e-07
2.7285984e-07
2.5864094e-05
1.6671513e-07
2.5818187e-07
2.5602546e-05
1.6181454e-07
2.4466094e-07
2.535253e-05
1.5721707e-07
2.3217764e-07
2.51132e-05
1.5289442e-07
2.2062727e-07
2.4883797e-05
1.4882097e-07
2.0991776e-07
2.4663634e-05
1.4497365e-07
1.9996812e-07
2.4452094e-05
1.413318e-07
1.9070706e-07
2.4248615e-05
1.3787695e-07
1.8207154e-07
2.405269e-05
1.3459264e-07
1.740057e-07
2.3863854e-05
1.3146461e-07
1.6645988e-07
2.3681684e-05
1.2848058e-07
1.5938927e-07
2.3505794e-05
1.2562918e-07
1.5275413e-07
2.3335829e-05
1.2289869e-07
1.4651971e-07
2.3171462e-05
1.2027635e-07
1.4065462e-07
2.3012394e-05
1.1775472e-07
1.351302e-07
2.2858345e-05
1.1532971e-07
1.2992043e-07
2.2709057e-05
1.1299539e-07
1.2500176e-07
2.2564291e-05
1.1074517e-07
1.203529e-07
2.2423824e-05
1.0857348e-07
1.159546e-07
2.2287451e-05
1.0647551e-07
1.1178926e-07
2.2154978e-05
1.0444703e-07
1.0784081e-07
2.2026226e-05
1.0248421e-07
1.0409458e-07
2.1901025e-05
1.005835e-07
1.0053716e-07
2.1779218e-05
9.8741554e-08
9.7156144e-08
2.1660658e-05
9.6954861e-08
9.3940273e-08
2.1545205e-05
9.5221287e-08
9.0879048e-08
2.1432729e-05
9.3538808e-08
8.7962814e-08
2.1323107e-05
9.190531e-08
8.5182611e-08
2.1216222e-05
9.0318517e-08
8.2530165e-08
2.1111965e-05
8.87764e-08
7.9997859e-08
2.1010233e-05
8.727712e-08
7.7578611e-08
2.0910927e-05
8.5819009e-08
7.5265847e-08
2.0813956e-05
8.4400345e-08
7.3053423e-08
2.0719232e-05
8.3019708e-08
7.0935629e-08
2.0626671e-05
8.1675636e-08
6.8907187e-08
2.0536195e-05
8.0366821e-08
6.6963115e-08
2.0447729e-05
7.909198e-08
6.5098789e-08
2.0361203e-05
7.784981e-08
6.33098e-08
2.0276548e-05
7.663922e-08
6.1592037e-08
2.0193702e-05
7.5458982e-08
5.9941729e-08
2.0112602e-05
7.4307955e-08
5.8355209e-08
2.0033193e-05
7.3184932e-08
5.6829063e-08
1.9955419e-05
7.2088647e-08
5.5359931e-08
1.9879228e-05
7.101764e-08
5.3944823e-08
1.9804572e-05
6.9970432e-08
5.2580718e-08
1.9731406e-05
6.8945262e-08
5.1264798e-08
1.9659685e-05
6.7940115e-08
4.9994398e-08
1.9589371e-05
6.6953039e-08
4.8767042e-08
1.9520423e-05
6.5982329e-08
4.7580532e-08
1.9452807e-05
6.5028033e-08
4.6433085e-08
1.9386482e-05
6.4094152e-08
4.5323743e-08
1.9321404e-05
6.3194717e-08
4.4253087e-08
1.9257511e-05
6.2366349e-08
4.3225215e-08
1.9194705e-05
6.1695186e-08
4.2253131e-08
1.9132798e-05
6.1374057e-08
4.1377393e-08
1.9071394e-05
6.1822432e-08
4.0750695e-08
1.9009424e-05
6.3924734e-08
4.105761e-08
1.8944661e-05
6.930469e-08
4.399883e-08
7.9170975e-08
7.4661522e-08
0.0001054937
1.9169871e-06
6.4880407e-06
0.00010005365
3.2729596e-06
6.5816334e-06
9.4926077e-05
3.8288995e-06
6.1580776e-06
8.9946373e-05
3.9838109e-06
5.9262629e-06
8.5163276e-05
3.9595077e-06
5.6547657e-06
8.0619137e-05
3.7899368e-06
5.3103784e-06
7.6329462e-05
3.5015547e-06
4.9350725e-06
7.230016e-05
3.1412013e-06
4.5559928e-06
6.8534206e-05
2.7514802e-06
4.1846641e-06
6.5032983e-05
2.3633492e-06
3.8278852e-06
6.1795789e-05
1.9984143e-06
3.490711e-06
5.8818843e-05
1.670376e-06
3.176301e-06
5.6094717e-05
1.3858295e-06
2.886043e-06
5.3612488e-05
1.1457944e-06
2.6200649e-06
5.1358373e-05
9.4764116e-07
2.3777043e-06
4.9316593e-05
7.8676783e-07
2.1578272e-06
4.7470246e-05
6.5779546e-07
1.9590391e-06
4.5802069e-05
5.5532537e-07
1.7798252e-06
4.4295042e-05
4.7437116e-07
1.6186378e-06
4.293283e-05
4.1056668e-07
1.473948e-06
4.1700078e-05
3.6023236e-07
1.3442759e-06
4.0582591e-05
3.2035745e-07
1.2282094e-06
3.956742e-05
2.8853738e-07
1.1244154e-06
3.8642881e-05
2.6289066e-07
1.0316467e-06
3.7798527e-05
2.4196988e-07
9.4874402e-07
3.7025076e-05
2.2467702e-07
8.746517e-07
3.6314324e-05
2.1018899e-07
8.084041e-07
3.5659057e-05
1.9788605e-07
7.4911042e-07
3.5052961e-05
1.8731586e-07
6.9597285e-07
3.4490519e-05
1.7814875e-07
6.4827378e-07
3.3966922e-05
1.7013174e-07
6.0537439e-07
3.3477973e-05
1.630673e-07
5.6670868e-07
3.3020016e-05
1.5680297e-07
5.3177543e-07
3.2589865e-05
1.512205e-07
5.0013241e-07
3.218474e-05
1.462256e-07
4.7139138e-07
3.1802215e-05
1.4174073e-07
4.4521233e-07
3.1440168e-05
1.3770094e-07
4.2129809e-07
3.1096739e-05
1.3405097e-07
3.9938926e-07
3.0770297e-05
1.3074297e-07
3.7925955e-07
3.0459402e-05
1.2773519e-07
3.6071195e-07
3.0162787e-05
1.2499096e-07
3.4357481e-07
2.9879325e-05
1.2247786e-07
3.276985e-07
2.960802e-05
1.2016735e-07
3.1295269e-07
2.934798e-05
1.1803381e-07
2.992235e-07
2.9098408e-05
1.1605465e-07
2.8641138e-07
2.885859e-05
1.1420984e-07
2.7442904e-07
2.8627882e-05
1.1248192e-07
2.6319996e-07
2.8405701e-05
1.1085558e-07
2.5265685e-07
2.819152e-05
1.093176e-07
2.4274023e-07
2.7984859e-05
1.0785644e-07
2.3339753e-07
2.7785279e-05
1.0646278e-07
2.2458209e-07
2.7592378e-05
1.0512869e-07
2.1625214e-07
2.740579e-05
1.0384734e-07
2.0837037e-07
2.7225174e-05
1.0261119e-07
2.0090362e-07
2.705022e-05
1.0140746e-07
1.9382257e-07
2.6880641e-05
1.0023385e-07
1.8710038e-07
2.6716166e-05
9.909235e-08
1.8071224e-07
2.6556546e-05
9.7980023e-08
1.7463558e-07
2.6401548e-05
9.6892529e-08
1.6885014e-07
2.6250957e-05
9.5827069e-08
1.6333744e-07
2.610457e-05
9.4781719e-08
1.5808045e-07
2.5962199e-05
9.3754737e-08
1.5306362e-07
2.5823666e-05
9.2744869e-08
1.4827258e-07
2.5688804e-05
9.1751028e-08
1.4369413e-07
2.5557458e-05
9.0771778e-08
1.3931598e-07
2.5429481e-05
8.9805168e-08
1.3512692e-07
2.5304734e-05
8.8851484e-08
1.3111646e-07
2.5183087e-05
8.7911227e-08
1.2727467e-07
2.5064416e-05
8.6983942e-08
1.2359244e-07
2.4948604e-05
8.6068889e-08
1.2006117e-07
2.4835542e-05
8.5165768e-08
1.1667298e-07
2.4725124e-05
8.4274296e-08
1.1342044e-07
2.4617252e-05
8.3394285e-08
1.1029655e-07
2.4511832e-05
8.2525494e-08
1.0729478e-07
2.4408775e-05
8.1667775e-08
1.0440898e-07
2.4307997e-05
8.082098e-08
1.0163341e-07
2.4209416e-05
7.9985042e-08
9.8962648e-08
2.4112956e-05
7.9159757e-08
9.639152e-08
2.4018546e-05
7.834505e-08
9.3915284e-08
2.3926115e-05
7.7540693e-08
9.1529298e-08
2.3835598e-05
7.6746548e-08
8.9229251e-08
2.3746933e-05
7.5962338e-08
8.7011062e-08
2.366006e-05
7.5187619e-08
8.4870694e-08
2.3574922e-05
7.4421982e-08
8.2804521e-08
2.3491466e-05
7.3664637e-08
8.0808894e-08
2.3409641e-05
7.2914612e-08
7.8880342e-08
2.33294e-05
7.2170693e-08
7.7015506e-08
2.3250698e-05
7.1431339e-08
7.5211021e-08
2.3173493e-05
7.0694905e-08
7.3463631e-08
2.3097745e-05
6.9960198e-08
7.1770067e-08
2.3023418e-05
6.922799e-08
7.0127014e-08
2.2950477e-05
6.850352e-08
6.8531205e-08
2.2878889e-05
6.7802872e-08
6.6979711e-08
2.2808619e-05
6.7165059e-08
6.5471579e-08
2.2739625e-05
6.6675244e-08
6.4013353e-08
2.267185e-05
6.6507047e-08
6.264232e-08
2.2605149e-05
6.6990696e-08
6.1532364e-08
2.2538888e-05
6.8686023e-08
6.1499897e-08
2.2471121e-05
7.2226975e-08
6.4845091e-08
7.6722834e-08
9.8461294e-08
0.0001051979
1.3340884e-06
6.4961221e-06
9.9496561e-05
2.3731022e-06
6.6011947e-06
9.4262459e-05
2.9019223e-06
6.1610799e-06
8.9251186e-05
3.0856641e-06
5.9094196e-06
8.4493498e-05
3.0947347e-06
5.6224614e-06
8.0033635e-05
2.9846656e-06
5.265134e-06
7.5876907e-05
2.7790155e-06
4.8792667e-06
7.2014635e-05
2.5106843e-06
4.4927895e-06
6.8436293e-05
2.2128728e-06
4.1169489e-06
6.5131387e-05
1.9107259e-06
3.7575291e-06
6.208941e-05
1.621732e-06
3.4186596e-06
5.9299432e-05
1.3573877e-06
3.1029661e-06
5.6749589e-05
1.1240344e-06
2.8116386e-06
5.4426788e-05
9.2377947e-07
2.5448158e-06
5.2316754e-05
7.5572799e-07
2.3019466e-06
5.0404313e-05
6.1717854e-07
2.0820302e-06
4.8673788e-05
5.0454349e-07
1.8837772e-06
4.7109414e-05
4.1397177e-07
1.7057274e-06
4.5695713e-05
3.417365e-07
1.5463363e-06
4.4417792e-05
2.844515e-07
1.4040359e-06
4.3261575e-05
2.3917114e-07
1.277278e-06
4.2213952e-05
2.0341504e-07
1.1645652e-06
4.1262871e-05
1.7514743e-07
1.0644718e-06
4.039737e-05
1.5273234e-07
9.7565898e-07
3.9607583e-05
1.3487531e-07
8.9688145e-07
3.8884688e-05
1.2055566e-07
8.2701641e-07
3.8220848e-05
1.0901093e-07
7.6501856e-07
3.7609155e-05
9.9633871e-08
7.0994489e-07
3.7043542e-05
9.1977455e-08
6.6095089e-07
3.6518702e-05
8.5705848e-08
6.1728288e-07
3.6030009e-05
8.0552392e-08
5.7827308e-07
3.5573433e-05
7.6308314e-08
5.4333416e-07
3.5145475e-05
7.2811272e-08
5.1195031e-07
3.4743091e-05
6.993414e-08
4.8367024e-07
3.4363641e-05
6.7575453e-08
4.5810065e-07
3.4004828e-05
6.5652896e-08
4.3489997e-07
3.3664659e-05
6.409859e-08
4.1377212e-07
3.3341393e-05
6.2855925e-08
3.9446095e-07
3.3033513e-05
6.1877016e-08
3.7674528e-07
3.2739693e-05
6.1121082e-08
3.6043423e-07
3.2458768e-05
6.0553077e-08
3.4536326e-07
3.2189712e-05
6.0142671e-08
3.3139054e-07
3.1931622e-05
5.9863679e-08
3.1839374e-07
3.1683696e-05
5.9693124e-08
3.0626734e-07
3.1445219e-05
5.9611189e-08
2.949201e-07
3.1215555e-05
5.9600632e-08
2.8427316e-07
3.0994132e-05
5.96465e-08
2.7425806e-07
3.0780436e-05
5.973616e-08
2.6481537e-07
3.0574002e-05
5.9858665e-08
2.5589331e-07
3.0374407e-05
6.000491e-08
2.4744661e-07
3.0181267e-05
6.0167609e-08
2.3943548e-07
2.9994229e-05
6.0341239e-08
2.3182485e-07
2.9812971e-05
6.0521813e-08
2.2458374e-07
2.9637193e-05
6.0704483e-08
2.1768455e-07
2.9466629e-05
6.0867278e-08
2.111046e-07
2.9301024e-05
6.1016979e-08
2.0482179e-07
2.914014e-05
6.116087e-08
1.9881568e-07
2.8983756e-05
6.1294935e-08
1.9306836e-07
2.8831669e-05
6.1415473e-08
1.8756389e-07
2.8683688e-05
6.1520932e-08
1.8228766e-07
2.8539633e-05
6.1610556e-08
1.7722638e-07
2.8399336e-05
6.168379e-08
1.7236787e-07
2.8262639e-05
6.1740499e-08
1.6770089e-07
2.8129394e-05
6.1780685e-08
1.6321518e-07
2.7999461e-05
6.1803865e-08
1.5890117e-07
2.7872709e-05
6.1807363e-08
1.5475037e-07
2.7749012e-05
6.1793553e-08
1.5075444e-07
2.7628253e-05
6.1764809e-08
1.4690559e-07
2.7510319e-05
6.172097e-08
1.4319661e-07
2.7395105e-05
6.1662071e-08
1.3962085e-07
2.728251e-05
6.1588638e-08
1.3617201e-07
2.7172439e-05
6.1501052e-08
1.3284422e-07
2.7064802e-05
6.1399951e-08
1.2963193e-07
2.6959511e-05
6.1285936e-08
1.2652991e-07
2.6856486e-05
6.1159561e-08
1.2353323e-07
2.6755649e-05
6.1021326e-08
1.2063729e-07
2.6656924e-05
6.0871875e-08
1.1783766e-07
2.6560242e-05
6.0711721e-08
1.1513013e-07
2.6465535e-05
6.0541387e-08
1.1251076e-07
2.6372738e-05
6.0361305e-08
1.099758e-07
2.6281791e-05
6.0171943e-08
1.0752158e-07
2.6192636e-05
5.9973541e-08
1.051447e-07
2.6105215e-05
5.976632e-08
1.028418e-07
2.6019477e-05
5.9550253e-08
1.006097e-07
2.5935371e-05
5.932517e-08
9.8445276e-08
2.585285e-05
5.9090521e-08
9.6345393e-08
2.5771868e-05
5.8845502e-08
9.4306917e-08
2.5692384e-05
5.8589001e-08
9.2326741e-08
2.5614357e-05
5.8319802e-08
9.0401428e-08
2.5537753e-05
5.8037068e-08
8.8527304e-08
2.5462539e-05
5.7741614e-08
8.6700196e-08
2.5388689e-05
5.7438401e-08
8.4915166e-08
2.5316184e-05
5.7141451e-08
8.3166631e-08
2.5245017e-05
5.6882563e-08
8.1449648e-08
2.51752e-05
5.6726031e-08
7.9765836e-08
2.510677e-05
5.678791e-08
7.8149213e-08
2.5039729e-05
5.72516e-08
7.6780963e-08
2.4973573e-05
5.8330949e-08
7.651022e-08
2.4906079e-05
5.9989485e-08
7.9732136e-08
6.0715025e-08
1.1287821e-07
0.00010503672
9.0789371e-07
6.5005614e-06
9.9140653e-05
1.6524914e-06
6.6166802e-06
9.3788329e-05
2.0825241e-06
6.1717217e-06
8.8708526e-05
2.2549373e-06
5.91053e-06
8.3909682e-05
2.278404e-06
5.6151748e-06
7.9437109e-05
2.2074821e-06
5.2497564e-06
7.5296201e-05
2.0645348e-06
4.8553893e-06
7.1474034e-05
1.8722543e-06
4.4605969e-06
6.7955013e-05
1.6547667e-06
4.0771269e-06
6.4723621e-05
1.4313505e-06
3.7107669e-06
6.1764423e-05
1.2154297e-06
3.3655007e-06
5.9062056e-05
1.015864e-06
3.0438911e-06
5.6601108e-05
8.3782741e-07
2.7471548e-06
5.4365944e-05
6.8344647e-07
2.475497e-06
5.2340648e-05
5.5258526e-07
2.2284383e-06
5.0509125e-05
4.4366547e-07
2.0050361e-06
4.8855299e-05
3.5433457e-07
1.8040352e-06
4.7363353e-05
2.8193594e-07
1.6239821e-06
4.6017963e-05
2.2381349e-07
1.4633127e-06
4.4804502e-05
1.7749382e-07
1.320418e-06
4.3709199e-05
1.4078089e-07
1.1936935e-06
4.2719248e-05
1.1179155e-07
1.081575e-06
4.1822875e-05
8.8954528e-08
9.8256583e-07
4.1009364e-05
7.0988005e-08
8.9525474e-07
4.0269054e-05
5.6861826e-08
8.1832381e-07
3.9593306e-05
4.5719143e-08
7.5058476e-07
3.8974405e-05
3.6977852e-08
6.9093438e-07
3.8405585e-05
3.0067377e-08
6.3838633e-07
3.7880869e-05
2.4650878e-08
5.9204242e-07
3.7395029e-05
2.0439994e-08
5.5110604e-07
3.6943514e-05
1.7190295e-08
5.1487715e-07
3.6522366e-05
1.4716753e-08
4.8273957e-07
3.6128148e-05
1.2874784e-08
4.5415391e-07
3.5757883e-05
1.1549905e-08
4.2864945e-07
3.5408991e-05
1.0650787e-08
4.0581702e-07
3.5079238e-05
1.010361e-08
3.8530228e-07
3.4766689e-05
9.8482963e-09
3.6679881e-07
3.4469668e-05
9.8351045e-09
3.5004233e-07
3.4186716e-05
1.0022912e-08
3.3480552e-07
3.3916567e-05
1.0377038e-08
3.2089287e-07
3.3658116e-05
1.0868068e-08
3.0813659e-07
3.3410395e-05
1.1470961e-08
2.9639282e-07
3.3172556e-05
1.2164213e-08
2.8553825e-07
3.2943852e-05
1.2929303e-08
2.7546718e-07
3.2723625e-05
1.3750167e-08
2.6608894e-07
3.2511286e-05
1.461309e-08
2.5732574e-07
3.2306316e-05
1.5506234e-08
2.4911066e-07
3.2108246e-05
1.6419577e-08
2.413862e-07
3.1916658e-05
1.7344595e-08
2.3410266e-07
3.1731171e-05
1.8274325e-08
2.2721711e-07
3.1551444e-05
1.920314e-08
2.2069213e-07
3.1377162e-05
2.0127736e-08
2.1449509e-07
3.1208038e-05
2.1048696e-08
2.0859681e-07
3.10438e-05
2.1972774e-08
2.0297053e-07
3.0884232e-05
2.2827855e-08
1.9760737e-07
3.0729103e-05
2.3662935e-08
1.9248229e-07
3.05782e-05
2.449e-08
1.8757381e-07
3.0431331e-05
2.529626e-08
1.8286762e-07
3.0288318e-05
2.6077983e-08
1.7835077e-07
3.0148994e-05
2.6834311e-08
1.740111e-07
3.0013202e-05
2.7564709e-08
1.6983754e-07
2.9880797e-05
2.8268981e-08
1.6582025e-07
2.975164e-05
2.8947438e-08
1.6195013e-07
2.96256e-05
2.9600778e-08
1.5821897e-07
2.9502557e-05
3.0228589e-08
1.5461918e-07
2.9382396e-05
3.0823591e-08
1.5114467e-07
2.9265007e-05
3.1393098e-08
1.4778876e-07
2.9150287e-05
3.1939568e-08
1.4454537e-07
2.9038137e-05
3.2461872e-08
1.4140899e-07
2.8928465e-05
3.2960036e-08
1.3837464e-07
2.8821181e-05
3.3434694e-08
1.3543752e-07
2.8716203e-05
3.3886378e-08
1.3259332e-07
2.8613449e-05
3.4315538e-08
1.2983783e-07
2.8512845e-05
3.4722894e-08
1.2716736e-07
2.8414317e-05
3.5108987e-08
1.2457814e-07
2.8317797e-05
3.5474448e-08
1.2206676e-07
2.8223219e-05
3.5819905e-08
1.1963009e-07
2.813052e-05
3.6145937e-08
1.1726493e-07
2.803964e-05
3.6453079e-08
1.149684e-07
2.7950522e-05
3.6741899e-08
1.1273772e-07
2.7863111e-05
3.7012787e-08
1.1057027e-07
2.7777354e-05
3.7266253e-08
1.0846343e-07
2.7693204e-05
3.7502477e-08
1.0641475e-07
2.761061e-05
3.7721592e-08
1.0442176e-07
2.752953e-05
3.7923557e-08
1.0248203e-07
2.744992e-05
3.8107982e-08
1.0059307e-07
2.7371738e-05
3.8274294e-08
9.8752302e-08
2.7294949e-05
3.8421559e-08
9.6956897e-08
2.7219516e-05
3.8548765e-08
9.5203635e-08
2.714541e-05
3.8655115e-08
9.3488598e-08
2.7072603e-05
3.8741146e-08
9.180696e-08
2.7001079e-05
3.8810261e-08
9.0152312e-08
2.6930832e-05
3.8872129e-08
8.8516579e-08
2.6861876e-05
3.8947396e-08
8.6890525e-08
2.679426e-05
3.9073508e-08
8.5269188e-08
2.6728065e-05
3.9306965e-08
8.3675946e-08
2.6663337e-05
3.9708351e-08
8.2271161e-08
2.659956e-05
4.0272017e-08
8.1836169e-08
2.6534295e-05
4.0698046e-08
8.4555705e-08
3.9620851e-08
1.1507131e-07
0.00010494757
5.6811078e-07
6.5033076e-06
9.8925416e-05
1.0462983e-06
6.6283516e-06
9.3480449e-05
1.3439844e-06
6.1835065e-06
8.8341777e-05
1.4751324e-06
5.9184763e-06
8.3502084e-05
1.4993911e-06
5.6187065e-06
7.9004057e-05
1.4572411e-06
5.2482679e-06
7.4853978e-05
1.3667382e-06
4.8478757e-06
7.1037378e-05
1.2423973e-06
4.4464569e-06
6.7536063e-05
1.0997693e-06
4.0563127e-06
6.4331998e-05
9.519236e-07
3.683491e-06
6.1407318e-05
8.0805756e-07
3.3320524e-06
5.8744339e-05
6.7422204e-07
3.0046209e-06
5.6325632e-05
5.5404398e-07
2.7024907e-06
5.4133973e-05
4.4916747e-07
2.4259383e-06
5.2152298e-05
3.59724e-07
2.174536e-06
5.0363747e-05
2.8484513e-07
1.9473718e-06
4.875178e-05
2.2310003e-07
1.7432015e-06
4.7300339e-05
1.7281167e-07
1.5605647e-06
4.5994012e-05
1.3226573e-07
1.3978748e-06
4.4818177e-05
9.9840023e-08
1.2534891e-06
4.3759121e-05
7.4075641e-08
1.1257614e-06
4.2804123e-05
5.3707645e-08
1.0130814e-06
4.1941503e-05
3.7671239e-08
9.1390376e-07
4.1160627e-05
2.5096491e-08
8.2676731e-07
4.0451891e-05
1.5294208e-08
7.5030393e-07
3.980679e-05
7.5281775e-09
6.8329177e-07
3.9217543e-05
1.6727723e-09
6.2455203e-07
3.8677513e-05
-3.0330833e-09
5.7313084e-07
3.8180739e-05
-6.6486503e-09
5.2807354e-07
3.7722004e-05
-9.3594765e-09
4.885345e-07
3.7296777e-05
-1.137179e-08
4.5378927e-07
3.6901112e-05
-1.2818219e-08
4.2319913e-07
3.6531588e-05
-1.3805294e-08
3.9620482e-07
3.6185236e-05
-1.4417474e-08
3.7231877e-07
3.5859491e-05
-1.4721885e-08
3.5111775e-07
3.5552132e-05
-1.4772649e-08
3.3223581e-07
3.5261237e-05
-1.4613921e-08
3.1535728e-07
3.4985143e-05
-1.4282165e-08
3.002109e-07
3.472241e-05
-1.3807677e-08
2.8656377e-07
3.4471787e-05
-1.3215886e-08
2.742163e-07
3.4232185e-05
-1.2528205e-08
2.6299768e-07
3.4002657e-05
-1.1762812e-08
2.5276174e-07
3.3782373e-05
-1.0935248e-08
2.433834e-07
3.3570606e-05
-1.0058774e-08
2.3475556e-07
3.3366714e-05
-9.1447352e-09
2.2678673e-07
3.3170131e-05
-8.2028307e-09
2.1939835e-07
3.2980356e-05
-7.2412431e-09
2.1252301e-07
3.279694e-05
-6.2668984e-09
2.061028e-07
3.2619482e-05
-5.2855474e-09
2.0008784e-07
3.2447623e-05
-4.3018366e-09
1.9443481e-07
3.228104e-05
-3.3190921e-09
1.8910588e-07
3.2119438e-05
-2.338352e-09
1.8406735e-07
3.1962554e-05
-1.3530605e-09
1.7928647e-07
3.1810075e-05
-2.7635166e-10
1.7472766e-07
3.1661878e-05
5.8580172e-10
1.7043904e-07
3.1517732e-05
1.435613e-09
1.6637295e-07
3.1377429e-05
2.3038025e-09
1.6248954e-07
3.1240792e-05
3.1586745e-09
1.5877486e-07
3.1107656e-05
3.9970009e-09
1.5521716e-07
3.0977867e-05
4.8171839e-09
1.5180549e-07
3.0851284e-05
5.6179658e-09
1.4852968e-07
3.0727774e-05
6.3990373e-09
1.4538076e-07
3.0607209e-05
7.1609077e-09
1.4235054e-07
3.0489473e-05
7.9059357e-09
1.394312e-07
3.037445e-05
8.6357363e-09
1.3661573e-07
3.0262049e-05
9.3206515e-09
1.33904e-07
3.0152163e-05
9.9938084e-09
1.3128565e-07
3.0044697e-05
1.0650383e-08
1.2875513e-07
2.9939564e-05
1.1286712e-08
1.2630827e-07
2.983668e-05
1.1903183e-08
1.2394088e-07
2.9735965e-05
1.2500149e-08
1.2164885e-07
2.9637345e-05
1.3077862e-08
1.1942842e-07
2.9540748e-05
1.3636705e-08
1.1727616e-07
2.9446105e-05
1.4177019e-08
1.1518884e-07
2.9353352e-05
1.4699175e-08
1.1316337e-07
2.9262425e-05
1.5203562e-08
1.1119701e-07
2.9173268e-05
1.5690485e-08
1.0928709e-07
2.9085822e-05
1.6160389e-08
1.0743108e-07
2.9000035e-05
1.6613561e-08
1.0562664e-07
2.8915855e-05
1.7050402e-08
1.0387154e-07
2.8833233e-05
1.7471083e-08
1.0216361e-07
2.8752123e-05
1.7875967e-08
1.005008e-07
2.8672479e-05
1.8265082e-08
9.8881082e-08
2.8594259e-05
1.8638542e-08
9.7302475e-08
2.8517424e-05
1.8996217e-08
9.5762971e-08
2.8441934e-05
1.9337813e-08
9.4260345e-08
2.8367753e-05
1.9662788e-08
9.2792358e-08
2.8294848e-05
1.9970462e-08
9.1356264e-08
2.8223187e-05
2.026002e-08
8.9948852e-08
2.8152746e-05
2.0530697e-08
8.8565897e-08
2.8083503e-05
2.0782586e-08
8.7201791e-08
2.8015447e-05
2.1017524e-08
8.5848686e-08
2.7948582e-05
2.1240718e-08
8.4495829e-08
2.7882937e-05
2.1462738e-08
8.3129508e-08
2.7818574e-05
2.1699957e-08
8.173652e-08
2.7755588e-05
2.1969286e-08
8.0324372e-08
2.7694014e-05
2.2266171e-08
7.9016076e-08
2.7633299e-05
2.2506276e-08
7.8480658e-08
2.7571004e-05
2.2393419e-08
8.0599436e-08
2.0993083e-08
1.0779945e-07
0.00010489986
2.7443377e-07
6.5049155e-06
9.8802772e-05
5.0716632e-07
6.6362236e-06
9.329591e-05
6.5854974e-07
6.1922972e-06
8.8116302e-05
7.2902545e-07
5.9257148e-06
8.3248198e-05
7.4378814e-07