/*--------------------------------*- C++ -*----------------------------------*\
  =========                 |
  \\      /  F ield         | OpenFOAM: The Open Source CFD Toolbox
   \\    /   O peration     | Website:  https://openfoam.org
    \\  /    A nd           | Version:  7
     \\/     M anipulation  |
\*---------------------------------------------------------------------------*/
FoamFile
{
    version     2.0;
    format      ascii;
    class       volVectorField;
    location    "2850/water";
    object      U;
}
// * * * * * * * * * * * * * * * * * * * * * * * * * * * * * * * * * * * * * //

dimensions      [0 1 -1 0 0 0 0];

internalField   nonuniform List<vector> 
54000
(
(0.0090020934 0.00020305973 0.00020444027)
(0.0083186447 0.00023622738 0.00023904411)
(0.0073695241 0.00021363852 0.00021763527)
(0.0063566114 0.00018488016 0.00018965819)
(0.0054486673 0.00015530836 0.00016048633)
(0.0046741594 0.00012529952 0.00013052937)
(0.0040193038 9.705261e-05 0.00010203017)
(0.0034740067 7.2578999e-05 7.7073287e-05)
(0.0030302461 5.2876127e-05 5.6738328e-05)
(0.0026757323 3.8068151e-05 4.1216512e-05)
(0.0023947254 2.7637703e-05 3.0037141e-05)
(0.0021713898 2.0689034e-05 2.2336508e-05)
(0.0019919695 1.6236161e-05 1.7152703e-05)
(0.0018455015 1.3416236e-05 1.3643172e-05)
(0.0017237326 1.1582489e-05 1.1179122e-05)
(0.0016206928 1.0304891e-05 9.3455811e-06)
(0.0015321593 9.3257907e-06 7.8957153e-06)
(0.0014551546 8.5052971e-06 6.6953095e-06)
(0.0013875459 7.7746334e-06 5.6760579e-06)
(0.0013277612 7.1034281e-06 4.8034867e-06)
(0.001274601 6.4798498e-06 4.0581566e-06)
(0.0012271179 5.8999454e-06 3.4261565e-06)
(0.0011845424 5.3625303e-06 2.8950708e-06)
(0.001146235 4.8670207e-06 2.4526305e-06)
(0.0011116558 4.4126002e-06 2.0869757e-06)
(0.0010803434 3.9980132e-06 1.7867442e-06)
(0.0010519002 3.6214608e-06 1.5416128e-06)
(0.0010259819 3.2805944e-06 1.3421853e-06)
(0.001002289 2.9733952e-06 1.179732e-06)
(0.00098056199 2.6979494e-06 1.0463205e-06)
(0.00096057572 2.4519204e-06 9.365893e-07)
(0.00094213242 2.2325673e-06 8.4693328e-07)
(0.00092505792 2.0373857e-06 7.7316555e-07)
(0.00090920047 1.8640885e-06 7.1184236e-07)
(0.00089442818 1.7104619e-06 6.6046745e-07)
(0.0008806259 1.5743822e-06 6.1707335e-07)
(0.00086769295 1.453861e-06 5.8005291e-07)
(0.00085554128 1.3470708e-06 5.4811488e-07)
(0.00084409387 1.2523505e-06 5.2023914e-07)
(0.00083328322 1.1681987e-06 4.956278e-07)
(0.00082305015 1.0932622e-06 4.7365336e-07)
(0.00081334267 1.0262296e-06 4.537835e-07)
(0.00080411486 9.6585849e-07 4.3554541e-07)
(0.00079532615 9.1131156e-07 4.1865044e-07)
(0.0007869407 8.6191758e-07 4.0290738e-07)
(0.00077892675 8.1708336e-07 3.881677e-07)
(0.00077125603 7.762773e-07 3.743214e-07)
(0.0007639033 7.3902624e-07 3.6127599e-07)
(0.00075684598 7.0491455e-07 3.4896431e-07)
(0.00075006373 6.7357515e-07 3.3733138e-07)
(0.00074353822 6.4469451e-07 3.2633683e-07)
(0.00073725294 6.1802556e-07 3.1581857e-07)
(0.00073119313 5.9334755e-07 3.0574402e-07)
(0.00072534528 5.7041933e-07 2.9621173e-07)
(0.00071969687 5.4902477e-07 2.8716646e-07)
(0.00071423653 5.2901412e-07 2.78543e-07)
(0.00070895386 5.1027263e-07 2.7031117e-07)
(0.00070383928 4.9268721e-07 2.6244804e-07)
(0.00069888397 4.7614425e-07 2.5493198e-07)
(0.00069407976 4.6054985e-07 2.4774352e-07)
(0.00068941911 4.4582098e-07 2.408635e-07)
(0.00068489502 4.3188568e-07 2.3427583e-07)
(0.00068050098 4.1867917e-07 2.2796404e-07)
(0.00067623091 4.0614694e-07 2.2191198e-07)
(0.00067207915 3.9423533e-07 2.1610561e-07)
(0.00066804042 3.8289762e-07 2.1053095e-07)
(0.00066410976 3.7209497e-07 2.0517773e-07)
(0.00066028251 3.6179478e-07 2.0003182e-07)
(0.00065655429 3.5196234e-07 1.9508295e-07)
(0.00065292099 3.4256933e-07 1.9031839e-07)
(0.00064937872 3.3358651e-07 1.8572859e-07)
(0.00064592384 3.2498823e-07 1.8130488e-07)
(0.00064255288 3.1675131e-07 1.7704058e-07)
(0.00063926261 3.0885636e-07 1.7292461e-07)
(0.00063604992 3.0128339e-07 1.6895156e-07)
(0.00063291192 2.9401365e-07 1.6511206e-07)
(0.00062984583 2.8703081e-07 1.6139727e-07)
(0.00062684904 2.8032144e-07 1.5780368e-07)
(0.00062391907 2.7387116e-07 1.5432054e-07)
(0.00062105358 2.6766663e-07 1.5094207e-07)
(0.00061825035 2.6169413e-07 1.4766118e-07)
(0.00061550726 2.5594524e-07 1.4447046e-07)
(0.00061282235 2.5040715e-07 1.4135985e-07)
(0.00061019373 2.4506881e-07 1.3832452e-07)
(0.00060761964 2.3991906e-07 1.3535637e-07)
(0.00060509845 2.3494587e-07 1.3244848e-07)
(0.00060262862 2.3013574e-07 1.29598e-07)
(0.00060020873 2.2547004e-07 1.2680409e-07)
(0.00059783744 2.2093171e-07 1.2407517e-07)
(0.00059551348 2.1649882e-07 1.2143414e-07)
(0.00059323555 2.1214977e-07 1.1892911e-07)
(0.00059100214 2.0787156e-07 1.1666224e-07)
(0.00058881114 2.0369109e-07 1.14831e-07)
(0.00058665898 1.9973181e-07 1.1382092e-07)
(0.0005845387 1.9638434e-07 1.1441065e-07)
(0.00058243501 1.9487188e-07 1.1837314e-07)
(0.00058031396 1.9977485e-07 1.309437e-07)
(0.0005781161 2.2258478e-07 1.6397631e-07)
(0.00057566369 1.9706923e-07 1.5080641e-07)
(0.00056906201 7.8896386e-07 7.5322646e-07)
(0.0095316863 0.0003313754 0.00022336697)
(0.0092716504 0.00041105942 0.00027052342)
(0.0087756651 0.00040317187 0.00026060062)
(0.0081527518 0.00038218754 0.00024252081)
(0.0075302151 0.00035309574 0.00022101124)
(0.0069425889 0.00031541062 0.00019648834)
(0.006391209 0.00027309198 0.00017102969)
(0.0058791845 0.00023030694 0.00014652546)
(0.0054120202 0.00019001855 0.00012410997)
(0.0049926512 0.00015423459 0.00010436627)
(0.004620592 0.00012408347 8.7479017e-05)
(0.0042931332 9.9809403e-05 7.3327496e-05)
(0.0040063965 8.0956424e-05 6.1601504e-05)
(0.0037559538 6.667221e-05 5.1918795e-05)
(0.0035372541 5.59858e-05 4.3907445e-05)
(0.003345947 4.7992056e-05 3.7246646e-05)
(0.0031780884 4.1941709e-05 3.167753e-05)
(0.0030302311 3.7262446e-05 2.699792e-05)
(0.0028994324 3.3540996e-05 2.3051137e-05)
(0.0027832152 3.0490244e-05 1.9714593e-05)
(0.0026795075 2.7915735e-05 1.6890544e-05)
(0.0025865783 2.568784e-05 1.4499382e-05)
(0.002502978 2.3720892e-05 1.2475016e-05)
(0.0024274871 2.195843e-05 1.0761726e-05)
(0.0023590736 2.0362995e-05 9.312231e-06)
(0.0022968589 1.8909455e-05 8.0861283e-06)
(0.0022400906 1.7580769e-05 7.0489621e-06)
(0.0021881216 1.63649e-05 6.1714978e-06)
(0.0021403932 1.5251964e-05 5.4283142e-06)
(0.0020964214 1.423385e-05 4.7973511e-06)
(0.0020557868 1.3303041e-05 4.2604818e-06)
(0.0020181236 1.2451986e-05 3.8027034e-06)
(0.0019831119 1.1673909e-05 3.4109612e-06)
(0.0019504718 1.0962755e-05 3.0744204e-06)
(0.0019199589 1.0312853e-05 2.7842595e-06)
(0.0018913593 9.7188325e-06 2.5331804e-06)
(0.0018644851 9.1756434e-06 2.3150737e-06)
(0.0018391716 8.6785712e-06 2.1248308e-06)
(0.0018152735 8.2232441e-06 1.9581837e-06)
(0.0017926629 7.8056204e-06 1.8115684e-06)
(0.0017712268 7.4219979e-06 1.6820114e-06)
(0.001750865 7.0689371e-06 1.5670711e-06)
(0.0017314886 6.743268e-06 1.4647425e-06)
(0.0017130186 6.4422736e-06 1.3732752e-06)
(0.0016953848 6.163558e-06 1.2911598e-06)
(0.0016785241 5.904978e-06 1.2171198e-06)
(0.00166238 5.6646112e-06 1.150084e-06)
(0.0016469019 5.4407245e-06 1.0891483e-06)
(0.001632044 5.2317764e-06 1.0335533e-06)
(0.0016177648 5.036385e-06 9.8265337e-07)
(0.0016040271 4.8533238e-06 9.3589386e-07)
(0.0015907965 4.6815625e-06 8.9273744e-07)
(0.0015780424 4.520157e-06 8.5278722e-07)
(0.0015657364 4.3681542e-06 8.1577094e-07)
(0.0015538526 4.2246829e-06 7.8138566e-07)
(0.0015423672 4.0890591e-06 7.4934548e-07)
(0.0015312583 3.9607274e-06 7.1941237e-07)
(0.0015205058 3.8391512e-06 6.9138754e-07)
(0.0015100909 3.7238122e-06 6.6509474e-07)
(0.0014999963 3.6142426e-06 6.4038013e-07)
(0.0014902061 3.5100294e-06 6.1710868e-07)
(0.0014807053 3.4107997e-06 5.9516039e-07)
(0.00147148 3.3162116e-06 5.7442787e-07)
(0.0014625175 3.2259602e-06 5.5481581e-07)
(0.0014538055 3.1397553e-06 5.3623607e-07)
(0.0014453328 3.057335e-06 5.1861325e-07)
(0.0014370889 2.9784703e-06 5.0187763e-07)
(0.0014290637 2.9029594e-06 4.8596761e-07)
(0.001421248 2.830603e-06 4.7082388e-07)
(0.001413633 2.761218e-06 4.563929e-07)
(0.0014062103 2.6946342e-06 4.4262814e-07)
(0.0013989723 2.6306905e-06 4.2948664e-07)
(0.0013919116 2.5692446e-06 4.1692925e-07)
(0.0013850211 2.5101623e-06 4.0492032e-07)
(0.0013782945 2.4533188e-06 3.9342506e-07)
(0.0013717253 2.3985953e-06 3.8241193e-07)
(0.0013653078 2.3458837e-06 3.7185104e-07)
(0.0013590364 2.2950852e-06 3.6171713e-07)
(0.0013529058 2.246104e-06 3.5198396e-07)
(0.001346911 2.1988515e-06 3.4262618e-07)
(0.0013410472 2.1532411e-06 3.336203e-07)
(0.0013353099 2.1091954e-06 3.2494595e-07)
(0.001329695 2.0666368e-06 3.1657901e-07)
(0.0013241983 2.0254881e-06 3.0850004e-07)
(0.001318816 1.9856727e-06 3.0068971e-07)
(0.0013135446 1.9471138e-06 2.9312965e-07)
(0.0013083808 1.909727e-06 2.8580539e-07)
(0.0013033213 1.8734235e-06 2.7870152e-07)
(0.0012983632 1.8381144e-06 2.7181639e-07)
(0.0012935038 1.803714e-06 2.6515419e-07)
(0.0012887402 1.7701712e-06 2.5874233e-07)
(0.0012840698 1.7375337e-06 2.5264992e-07)
(0.0012794889 1.7061215e-06 2.4701435e-07)
(0.0012749925 1.6769098e-06 2.4211371e-07)
(0.001270572 1.6524672e-06 2.3851924e-07)
(0.0012662098 1.6393323e-06 2.3766e-07)
(0.0012618709 1.6545776e-06 2.4458256e-07)
(0.0012574959 1.7463722e-06 2.7712466e-07)
(0.0012529717 2.0376713e-06 2.6526518e-07)
(0.0012433358 2.9514828e-06 1.3525342e-06)
(0.0095221617 0.00021179965 0.00022180582)
(0.009269783 0.00029872516 0.00026628967)
(0.0088657772 0.00031669844 0.00025526743)
(0.0083755729 0.000317438 0.00023864265)
(0.0078888426 0.00030841043 0.00021987851)
(0.0074276349 0.00028848207 0.00019850458)
(0.006988258 0.00026048391 0.00017617916)
(0.0065698164 0.00022855168 0.00015444521)
(0.0061756011 0.00019596771 0.00013413534)
(0.0058087146 0.00016504408 0.00011567593)
(0.0054706295 0.00013728621 9.9270838e-05)
(0.0051615551 0.00011345265 8.4947832e-05)
(0.0048808654 9.3684507e-05 7.2600737e-05)
(0.0046272998 7.7712987e-05 6.2044901e-05)
(0.0043991196 6.5057025e-05 5.3064543e-05)
(0.0041942886 5.5163888e-05 4.5443631e-05)
(0.0040106431 4.7493346e-05 3.8982754e-05)
(0.0038460219 4.1561376e-05 3.3506381e-05)
(0.0036983537 3.6958193e-05 2.8864074e-05)
(0.0035657105 3.3351175e-05 2.4928487e-05)
(0.0034463343 3.0479503e-05 2.1592135e-05)
(0.003338646 2.8144769e-05 1.8764098e-05)
(0.003241243 2.6200154e-05 1.6367139e-05)
(0.0031528887 2.4539753e-05 1.4335369e-05)
(0.0030724986 2.3088867e-05 1.2612489e-05)
(0.0029991252 2.1796114e-05 1.1150134e-05)
(0.0029319421 2.0626906e-05 9.9064817e-06)
(0.0028702292 1.9558163e-05 8.8458149e-06)
(0.0028133589 1.8574037e-05 7.9385374e-06)
(0.0027607855 1.7663623e-05 7.1598229e-06)
(0.0027120345 1.6818835e-05 6.4890364e-06)
(0.0026666927 1.6033067e-05 5.9090208e-06)
(0.0026243991 1.5301096e-05 5.4052722e-06)
(0.0025848382 1.461882e-05 4.965653e-06)
(0.0025477347 1.3982712e-05 4.5801144e-06)
(0.0025128472 1.3389543e-05 4.2403275e-06)
(0.002479964 1.283628e-05 3.9393563e-06)
(0.0024488994 1.2320058e-05 3.6714265e-06)
(0.0024194896 1.1838144e-05 3.4317264e-06)
(0.00239159 1.1387939e-05 3.2162519e-06)
(0.0023650729 1.0966984e-05 3.0216602e-06)
(0.0023398248 1.0572998e-05 2.8451746e-06)
(0.0023157449 1.0203874e-05 2.6844752e-06)
(0.0022927433 9.8575803e-06 2.5375942e-06)
(0.0022707398 9.5322161e-06 2.4028643e-06)
(0.002249662 9.2260287e-06 2.2788675e-06)
(0.0022294453 8.9374194e-06 2.1644001e-06)
(0.0022100312 8.6649275e-06 2.058438e-06)
(0.0021913666 8.4072364e-06 1.9601016e-06)
(0.0021734038 8.1631544e-06 1.8686314e-06)
(0.0021560989 7.9316224e-06 1.7833666e-06)
(0.0021394122 7.7117242e-06 1.7037088e-06)
(0.0021233074 7.5026022e-06 1.6291518e-06)
(0.0021077512 7.3033798e-06 1.5592841e-06)
(0.0020927129 7.1131879e-06 1.49372e-06)
(0.0020781645 6.9314147e-06 1.4321039e-06)
(0.0020640799 6.7576053e-06 1.3741139e-06)
(0.0020504351 6.5912612e-06 1.3194623e-06)
(0.0020372075 6.4318793e-06 1.2678951e-06)
(0.0020243766 6.2790061e-06 1.2191873e-06)
(0.0020119231 6.1322412e-06 1.1731329e-06)
(0.001999829 5.9912217e-06 1.1295438e-06)
(0.0019880776 5.8556117e-06 1.0882497e-06)
(0.0019766531 5.7251046e-06 1.0490958e-06)
(0.0019655411 5.5994084e-06 1.0119371e-06)
(0.0019547276 5.4782434e-06 9.7664605e-07)
(0.0019441999 5.3613901e-06 9.4310097e-07)
(0.0019339458 5.2486489e-06 9.1119002e-07)
(0.0019239539 5.1398187e-06 8.8080809e-07)
(0.0019142135 5.0347024e-06 8.5185993e-07)
(0.0019047144 4.9331195e-06 8.2425886e-07)
(0.001895447 4.8348996e-06 7.9792378e-07)
(0.0018864023 4.7398911e-06 7.727797e-07)
(0.0018775718 4.6479435e-06 7.4875607e-07)
(0.0018689473 4.5589235e-06 7.2578738e-07)
(0.0018605211 4.4726997e-06 7.0381354e-07)
(0.0018522861 4.3891528e-06 6.8277752e-07)
(0.0018442353 4.308169e-06 6.6262654e-07)
(0.0018363621 4.2296372e-06 6.4330894e-07)
(0.0018286604 4.1534577e-06 6.2477679e-07)
(0.0018211241 4.0795282e-06 6.0698827e-07)
(0.0018137478 4.0077526e-06 5.8990006e-07)
(0.0018065261 3.9380361e-06 5.7347282e-07)
(0.001799454 3.8702804e-06 5.5766595e-07)
(0.0017925266 3.8043822e-06 5.4244656e-07)
(0.0017857396 3.7402371e-06 5.277784e-07)
(0.0017790885 3.6777267e-06 5.1362938e-07)
(0.0017725695 3.6167254e-06 4.9996999e-07)
(0.0017661787 3.557107e-06 4.8677503e-07)
(0.0017599128 3.4987595e-06 4.7402507e-07)
(0.0017537682 3.4416546e-06 4.6170947e-07)
(0.0017477416 3.385966e-06 4.4983581e-07)
(0.0017418294 3.3323831e-06 4.3844288e-07)
(0.0017360272 3.2827918e-06 4.276461e-07)
(0.0017303281 3.2417778e-06 4.1776802e-07)
(0.0017247202 3.2200407e-06 4.0999061e-07)
(0.001719183 3.2421568e-06 4.0985068e-07)
(0.001713691 3.3643447e-06 4.4114427e-07)
(0.0017081999 3.7072195e-06 4.7353356e-07)
(0.0016974804 4.4611221e-06 1.8634984e-06)
(0.0095012861 0.00013951169 0.00022248511)
(0.0092133349 0.00022408324 0.00026709763)
(0.0088018509 0.0002570094 0.00025529581)
(0.0083306071 0.00026690691 0.0002382081)
(0.0078754299 0.00026502158 0.00021939836)
(0.0074527063 0.0002529565 0.00019823245)
(0.0070564396 0.00023295893 0.00017634609)
(0.0066827538 0.00020836345 0.0001552305)
(0.006331873 0.00018203353 0.00013558338)
(0.0060047052 0.00015603739 0.00011769036)
(0.0057015056 0.000131804 0.00010166909)
(0.0054220192 0.00011020725 8.7524313e-05)
(0.0051656909 9.16319e-05 7.5171986e-05)
(0.0049316845 7.6091184e-05 6.4472619e-05)
(0.0047188814 6.3363142e-05 5.526115e-05)
(0.0045259349 5.3104941e-05 4.7366821e-05)
(0.0043513547 4.4932757e-05 4.06249e-05)
(0.0041935865 3.8471359e-05 3.4883032e-05)
(0.0040510752 3.3381245e-05 3.0003996e-05)
(0.0039223115 2.9370509e-05 2.5866181e-05)
(0.0038058643 2.6197263e-05 2.2362867e-05)
(0.0037004012 2.3666732e-05 1.9400962e-05)
(0.0036047 2.1625759e-05 1.6899611e-05)
(0.0035176529 1.9956328e-05 1.4788823e-05)
(0.0034382652 1.8569049e-05 1.3008105e-05)
(0.0033656513 1.7397362e-05 1.1504745e-05)
(0.0032990266 1.6392003e-05 1.0233523e-05)
(0.0032376995 1.5516241e-05 9.1565343e-06)
(0.0031810636 1.4743887e-05 8.2421125e-06)
(0.0031285885 1.4056154e-05 7.4635743e-06)
(0.0030798115 1.3438897e-05 6.7985198e-06)
(0.0030343294 1.2881153e-05 6.2282225e-06)
(0.0029917905 1.2374495e-05 5.7369832e-06)
(0.0029518882 1.1912418e-05 5.3116662e-06)
(0.0029143553 1.148969e-05 4.9413542e-06)
(0.0028789586 1.1101928e-05 4.6170011e-06)
(0.0028454946 1.074538e-05 4.331122e-06)
(0.0028137847 1.0416775e-05 4.0775293e-06)
(0.0027836727 1.0113219e-05 3.8511085e-06)
(0.0027550209 9.832122e-06 3.6476454e-06)
(0.0027277081 9.5711605e-06 3.4636652e-06)
(0.002701627 9.3282496e-06 3.2963007e-06)
(0.0026766823 9.1015161e-06 3.1431907e-06)
(0.0026527895 8.8892429e-06 3.0023815e-06)
(0.0026298729 8.6898924e-06 2.8722563e-06)
(0.0026078647 8.5020898e-06 2.7514706e-06)
(0.002586704 8.3246168e-06 2.6389093e-06)
(0.0025663358 8.1563955e-06 2.5336419e-06)
(0.0025467102 7.9964768e-06 2.4348847e-06)
(0.002527782 7.844025e-06 2.3419779e-06)
(0.0025095101 7.6983368e-06 2.2543606e-06)
(0.0024918566 7.5588095e-06 2.1715443e-06)
(0.0024747871 7.4248977e-06 2.0931126e-06)
(0.0024582699 7.2960219e-06 2.0187204e-06)
(0.0024422756 7.1714389e-06 1.9480691e-06)
(0.0024267775 7.0509279e-06 1.8808974e-06)
(0.0024117506 6.9343772e-06 1.8169521e-06)
(0.0023971715 6.8214912e-06 1.7560021e-06)
(0.0023830185 6.7119562e-06 1.6978523e-06)
(0.0023692714 6.6055382e-06 1.6423289e-06)
(0.0023559116 6.5020463e-06 1.5892721e-06)
(0.0023429214 6.4013096e-06 1.5385382e-06)
(0.0023302844 6.3031808e-06 1.4899931e-06)
(0.0023179851 6.207525e-06 1.4435163e-06)
(0.0023060089 6.1142042e-06 1.3989936e-06)
(0.0022943424 6.0230668e-06 1.3563251e-06)
(0.0022829727 5.9340591e-06 1.315416e-06)
(0.0022718877 5.8471298e-06 1.2761706e-06)
(0.002261076 5.7622046e-06 1.2385025e-06)
(0.0022505267 5.6791981e-06 1.2023302e-06)
(0.0022402296 5.5980417e-06 1.1675817e-06)
(0.0022301752 5.5186717e-06 1.1341873e-06)
(0.0022203542 5.4410322e-06 1.1020805e-06)
(0.002210758 5.3650639e-06 1.071199e-06)
(0.0022013784 5.290719e-06 1.0414841e-06)
(0.0021922076 5.2179486e-06 1.0128812e-06)
(0.0021832381 5.1467104e-06 9.8533805e-07)
(0.0021744628 5.0769586e-06 9.5880264e-07)
(0.0021658752 5.0086504e-06 9.3323035e-07)
(0.0021574688 4.9417445e-06 9.0857394e-07)
(0.0021492375 4.8761983e-06 8.8479072e-07)
(0.0021411756 4.8119669e-06 8.6184017e-07)
(0.0021332776 4.7489986e-06 8.3967826e-07)
(0.0021255383 4.6872405e-06 8.1827024e-07)
(0.0021179527 4.6266224e-06 7.9757645e-07)
(0.0021105161 4.567067e-06 7.7755991e-07)
(0.0021032242 4.5084816e-06 7.5818431e-07)
(0.0020960727 4.4507554e-06 7.3941133e-07)
(0.0020890577 4.3937761e-06 7.212032e-07)
(0.0020821756 4.3374534e-06 7.0352075e-07)
(0.002075423 4.2818112e-06 6.8632154e-07)
(0.0020687967 4.2271346e-06 6.6956186e-07)
(0.0020622937 4.1743548e-06 6.5320335e-07)
(0.002055911 4.1258147e-06 6.3726208e-07)
(0.0020496453 4.0868296e-06 6.2198474e-07)
(0.0020434926 4.0687758e-06 6.0874754e-07)
(0.0020374483 4.0948764e-06 6.0452154e-07)
(0.0020315149 4.2094253e-06 6.3987795e-07)
(0.0020256647 4.4797486e-06 7.1688357e-07)
(0.0020144539 4.9057777e-06 2.2695245e-06)
(0.0094902877 9.6726608e-05 0.00022289229)
(0.00917661 0.00016632333 0.00026788105)
(0.0087449456 0.00019969046 0.00025550648)
(0.0082664657 0.00021101604 0.00023762681)
(0.00781215 0.0002109939 0.0002181603)
(0.0073950862 0.00020282359 0.00019646328)
(0.0070087986 0.00018827265 0.00017418493)
(0.006648835 0.00016968865 0.0001528463)
(0.0063142174 0.00014929331 0.00013312182)
(0.0060045996 0.00012875288 0.0001152379)
(0.0057192201 0.00010923291 9.9256791e-05)
(0.0054570682 9.149007e-05 8.5148909e-05)
(0.0052170782 7.59234e-05 7.2816211e-05)
(0.0049981259 6.264333e-05 6.2119134e-05)
(0.0047989841 5.1561152e-05 5.2900048e-05)
(0.0046183234 4.2472278e-05 4.4997976e-05)
(0.0044547458 3.5118725e-05 3.8256897e-05)
(0.0043068267 2.9230542e-05 3.2530441e-05)
(0.0041731526 2.4550834e-05 2.7684338e-05)
(0.0040523509 2.0849112e-05 2.3597362e-05)
(0.0039431142 1.7926912e-05 2.0161344e-05)
(0.0038442168 1.56186e-05 1.7280681e-05)
(0.0037545253 1.3789365e-05 1.4871531e-05)
(0.0036730042 1.2331759e-05 1.2860862e-05)
(0.0035987172 1.116154e-05 1.1185211e-05)
(0.0035308246 1.0213365e-05 9.7889746e-06)
(0.0034685786 9.4380829e-06 8.6250718e-06)
(0.0034113173 8.7971289e-06 7.6543155e-06)
(0.0033584589 8.262722e-06 6.84394e-06)
(0.0033094933 7.8140836e-06 6.1664547e-06)
(0.0032639753 7.4348252e-06 5.5988447e-06)
(0.0032215172 7.1121316e-06 5.1219276e-06)
(0.0031817817 6.8360963e-06 4.719728e-06)
(0.0031444758 6.5990194e-06 4.3789733e-06)
(0.0031093448 6.3947796e-06 4.0886806e-06)
(0.0030761678 6.2184053e-06 3.8397974e-06)
(0.0030447526 6.0657961e-06 3.6248793e-06)
(0.003014932 5.9335282e-06 3.437818e-06)
(0.0029865602 5.8186976e-06 3.2736186e-06)
(0.0029595097 5.7188197e-06 3.1282045e-06)
(0.002933669 5.6317511e-06 2.9982607e-06)
(0.0029089401 5.5556268e-06 2.8810968e-06)
(0.0028852364 5.4888254e-06 2.774533e-06)
(0.0028624815 5.4299129e-06 2.6768099e-06)
(0.0028406075 5.3776429e-06 2.5865045e-06)
(0.0028195538 5.3309238e-06 2.5024725e-06)
(0.0027992664 5.2888078e-06 2.4237888e-06)
(0.0027796963 5.2504813e-06 2.3497101e-06)
(0.0027607998 5.2152427e-06 2.2796369e-06)
(0.002742537 5.1824959e-06 2.213084e-06)
(0.0027248717 5.1517649e-06 2.1496545e-06)
(0.0027077708 5.1226671e-06 2.0890223e-06)
(0.002691204 5.0948949e-06 2.0309205e-06)
(0.0026751435 5.0680874e-06 1.9751365e-06)
(0.0026595636 5.0410652e-06 1.9215403e-06)
(0.0026444411 5.014259e-06 1.8699669e-06)
(0.002629754 4.9880181e-06 1.8202516e-06)
(0.0026154815 4.9620731e-06 1.7722784e-06)
(0.0026016045 4.9361415e-06 1.7259608e-06)
(0.0025881054 4.9100839e-06 1.6812153e-06)
(0.0025749674 4.8838331e-06 1.6379665e-06)
(0.002562175 4.8573398e-06 1.596147e-06)
(0.0025497136 4.8305808e-06 1.5556926e-06)
(0.0025375693 4.8035397e-06 1.5165478e-06)
(0.0025257292 4.7761752e-06 1.4786596e-06)
(0.002514181 4.748383e-06 1.4419865e-06)
(0.0025029134 4.7202751e-06 1.4064837e-06)
(0.0024919154 4.6919143e-06 1.3721026e-06)
(0.0024811765 4.6632899e-06 1.3387973e-06)
(0.002470687 4.6343999e-06 1.3065293e-06)
(0.0024604377 4.6052674e-06 1.2752604e-06)
(0.0024504197 4.5759078e-06 1.2449543e-06)
(0.0024406247 4.5463458e-06 1.2155765e-06)
(0.0024310448 4.5166019e-06 1.1870933e-06)
(0.0024216723 4.4866974e-06 1.159472e-06)
(0.0024125001 4.4566517e-06 1.1326837e-06)
(0.0024035213 4.4264899e-06 1.1066974e-06)
(0.0023947295 4.3962293e-06 1.0814826e-06)
(0.0023861184 4.3658905e-06 1.0570126e-06)
(0.0023776821 4.3354864e-06 1.0332604e-06)
(0.0023694149 4.3050331e-06 1.0101962e-06)
(0.0023613115 4.2745359e-06 9.8779521e-07)
(0.0023533667 4.2439931e-06 9.6602962e-07)
(0.0023455757 4.2133966e-06 9.4487362e-07)
(0.0023379338 4.1827219e-06 9.2429946e-07)
(0.0023304365 4.1519269e-06 9.0427631e-07)
(0.0023230798 4.1209538e-06 8.8477164e-07)
(0.0023158598 4.0897252e-06 8.6575209e-07)
(0.0023087726 4.0581571e-06 8.4717257e-07)
(0.002301815 4.0261904e-06 8.289801e-07)
(0.0022949838 3.9938765e-06 8.111068e-07)
(0.0022882766 3.9615308e-06 7.9346295e-07)
(0.002281691 3.9300785e-06 7.7594361e-07)
(0.0022752261 3.9016908e-06 7.5847816e-07)
(0.002268882 3.8809394e-06 7.4124733e-07)
(0.0022626608 3.8766467e-06 7.2572741e-07)
(0.0022565686 3.9043031e-06 7.1957896e-07)
(0.0022506189 3.9866549e-06 7.5579918e-07)
(0.0022447715 4.1391003e-06 8.4931628e-07)
(0.002233564 4.2832258e-06 2.4122101e-06)
(0.0094843561 6.6886586e-05 0.00022303624)
(0.0091549219 0.00011904886 0.00026838771)
(0.0087072816 0.00014772496 0.00025588053)
(0.0082191888 0.00015892952 0.00023765677)
(0.0077602858 0.00016026049 0.00021787143)
(0.0073412804 0.00015505102 0.00019586613)
(0.0069552494 0.00014481701 0.00017327438)
(0.0065978366 0.00013121474 0.00015165024)
(0.0062677954 0.00011592881 0.00013169211)
(0.0059642872 0.00010028521 0.0001136244)
(0.0056860598 8.5214431e-05 9.7497523e-05)
(0.0054316726 7.1330406e-05 8.3272195e-05)
(0.0051997008 5.8984297e-05 7.0844884e-05)
(0.0049887459 4.8311754e-05 6.0073374e-05)
(0.0047973943 3.9291583e-05 5.0798891e-05)
(0.0046242055 3.1804354e-05 4.2859902e-05)
(0.0044677269 2.5679086e-05 3.6099807e-05)
(0.0043265179 2.0725785e-05 3.0371291e-05)
(0.0041991724 1.6756345e-05 2.5538702e-05)
(0.004084339 1.3596839e-05 2.1479082e-05)
(0.0039807371 1.1093753e-05 1.8082323e-05)
(0.0038871692 9.1161633e-06 1.525079e-05)
(0.0038025288 7.5553799e-06 1.2898647e-05)
(0.003725804 6.3231347e-06 1.0950987e-05)
(0.0036560786 5.3488193e-06 9.3426779e-06)
(0.0035925304 4.5751811e-06 8.0166136e-06)
(0.0035344253 3.9621001e-06 6.9239488e-06)
(0.0034811131 3.4726284e-06 6.0250736e-06)
(0.0034320221 3.0815212e-06 5.2862638e-06)
(0.0033866501 2.7702778e-06 4.6792099e-06)
(0.0033445586 2.5236738e-06 4.1805213e-06)
(0.0033053662 2.3295871e-06 3.7707529e-06)
(0.0032687419 2.1784974e-06 3.4337456e-06)
(0.0032343982 2.0629058e-06 3.1561117e-06)
(0.0032020863 1.9768097e-06 2.9267966e-06)
(0.0031715907 1.915317e-06 2.7367035e-06)
(0.0031427248 1.874381e-06 2.5783566e-06)
(0.0031153267 1.8506053e-06 2.4456289e-06)
(0.0030892563 1.8411244e-06 2.3335225e-06)
(0.0030643915 1.8434985e-06 2.2379671e-06)
(0.003040626 1.8556443e-06 2.1556635e-06)
(0.0030178671 1.8757798e-06 2.0839512e-06)
(0.0029960335 1.9023806e-06 2.0206937e-06)
(0.0029750538 1.9341333e-06 1.9641817e-06)
(0.0029548648 1.969914e-06 1.9130525e-06)
(0.0029354109 2.0087624e-06 1.8662276e-06)
(0.0029166424 2.0498564e-06 1.822852e-06)
(0.0028985148 2.0925083e-06 1.7822565e-06)
(0.0028809885 2.1361362e-06 1.7439133e-06)
(0.0028640277 2.18027e-06 1.7074094e-06)
(0.0028476 2.2245492e-06 1.6724138e-06)
(0.0028316758 2.2687601e-06 1.6386557e-06)
(0.0028162284 2.312895e-06 1.605872e-06)
(0.0028012324 2.3570801e-06 1.573822e-06)
(0.0027866658 2.3978714e-06 1.5431887e-06)
(0.0027725089 2.4362337e-06 1.5136873e-06)
(0.0027587418 2.4734395e-06 1.4848885e-06)
(0.002745346 2.5095332e-06 1.4567011e-06)
(0.002732305 2.5443505e-06 1.4291163e-06)
(0.0027196032 2.5777721e-06 1.4021123e-06)
(0.0027072261 2.6097249e-06 1.3756638e-06)
(0.0026951602 2.6401665e-06 1.3497567e-06)
(0.0026833928 2.669089e-06 1.324375e-06)
(0.0026719116 2.6965041e-06 1.2995096e-06)
(0.0026607054 2.7223731e-06 1.2751522e-06)
(0.0026497635 2.7463554e-06 1.2513139e-06)
(0.002639076 2.768907e-06 1.2279779e-06)
(0.0026286333 2.7901452e-06 1.2051289e-06)
(0.0026184262 2.8099919e-06 1.1827606e-06)
(0.0026084461 2.8284294e-06 1.1608712e-06)
(0.0025986849 2.8454926e-06 1.1394498e-06)
(0.0025891348 2.8612181e-06 1.1184916e-06)
(0.0025797885 2.8756479e-06 1.0979853e-06)
(0.002570639 2.8888304e-06 1.0779285e-06)
(0.0025616795 2.9008073e-06 1.0583086e-06)
(0.0025529038 2.9116202e-06 1.0391174e-06)
(0.0025443058 2.9213146e-06 1.020349e-06)
(0.0025358796 2.9299307e-06 1.0019902e-06)
(0.0025276198 2.9375068e-06 9.8403203e-07)
(0.002519521 2.9440793e-06 9.6646488e-07)
(0.0025115783 2.94968e-06 9.4927886e-07)
(0.0025037869 2.9543372e-06 9.3246149e-07)
(0.0024961421 2.9580682e-06 9.1600042e-07)
(0.0024886396 2.9608811e-06 8.9988056e-07)
(0.0024812752 2.9627739e-06 8.8408565e-07)
(0.002474045 2.9637224e-06 8.6859452e-07)
(0.0024669452 2.9636882e-06 8.5338209e-07)
(0.0024599723 2.9626128e-06 8.3841399e-07)
(0.0024531231 2.9604312e-06 8.2364372e-07)
(0.0024463945 2.9570962e-06 8.0900324e-07)
(0.0024397839 2.9526508e-06 7.9439908e-07)
(0.0024332895 2.9473506e-06 7.7969383e-07)
(0.0024269099 2.9419135e-06 7.647096e-07)
(0.0024206457 2.9379211e-06 7.4925945e-07)
(0.0024144993 2.938418e-06 7.3336486e-07)
(0.0024084767 2.948496e-06 7.1826481e-07)
(0.0024025877 2.9751252e-06 7.1113285e-07)
(0.002396846 3.023462e-06 7.4331253e-07)
(0.0023911946 3.0808307e-06 8.3046557e-07)
(0.0023803644 3.0574262e-06 2.2999435e-06)
(0.0094810492 4.4090135e-05 0.00022308885)
(0.0091422796 7.9975483e-05 0.00026874495)
(0.0086839084 0.00010160921 0.00025628771)
(0.0081880903 0.00011101591 0.00023793456)
(0.0077246858 0.00011275118 0.00021798622)
(0.0073029895 0.00010953687 0.00019578738)
(0.0069155191 0.00010266029 0.00017296032)
(0.0065579578 9.3267236e-05 0.0001510852)
(0.006229001 8.2539593e-05 0.00013089045)
(0.005927585 7.1446831e-05 0.00011261412)
(0.0056522063 6.0673359e-05 9.6309239e-05)
(0.0054012005 5.0670807e-05 8.1936269e-05)
(0.0051729477 4.1706608e-05 6.9390833e-05)
(0.004965887 3.3898115e-05 5.8529098e-05)
(0.0047784814 2.7249954e-05 4.9189879e-05)
(0.0046092054 2.1693073e-05 4.1208774e-05)
(0.0044565535 1.7117437e-05 3.4426143e-05)
(0.0043190553 1.339552e-05 2.8691658e-05)
(0.0041952917 1.0397813e-05 2.3866804e-05)
(0.0040839086 8.0023315e-06 1.9826012e-05)
(0.0039836292 6.099771e-06 1.6456861e-05)
(0.0038932634 4.5956624e-06 1.3659716e-05)
(0.0038117126 3.4106734e-06 1.1347012e-05)
(0.0037379734 2.4799301e-06 9.4422914e-06)
(0.0036711359 1.7515126e-06 7.8790908e-06)
(0.0036103859 1.1749056e-06 6.6010337e-06)
(0.0035549935 7.223414e-07 5.5561205e-06)
(0.0035043108 3.7342623e-07 4.7060704e-06)
(0.0034577717 1.0569811e-07 4.0163446e-06)
(0.0034148763 -9.9088219e-08 3.4574136e-06)
(0.0033751872 -2.5333525e-07 3.0054954e-06)
(0.0033383243 -3.6639899e-07 2.6409748e-06)
(0.0033039576 -4.457788e-07 2.3475738e-06)
(0.0032718009 -4.9748324e-07 2.1118271e-06)
(0.0032416065 -5.2634545e-07 1.9226416e-06)
(0.0032131599 -5.3631116e-07 1.7709159e-06)
(0.0031862758 -5.3063938e-07 1.6492027e-06)
(0.0031607936 -5.1206261e-07 1.5514414e-06)
(0.0031365743 -4.8287163e-07 1.4727108e-06)
(0.0031134976 -4.4500724e-07 1.4090329e-06)
(0.0030914586 -4.0011266e-07 1.3572055e-06)
(0.0030703663 -3.4958034e-07 1.314657e-06)
(0.0030501409 -2.9459616e-07 1.2793321e-06)
(0.0030307129 -2.3616986e-07 1.2495914e-06)
(0.0030120207 -1.7516594e-07 1.2241403e-06)
(0.0029940105 -1.1232136e-07 1.2019536e-06)
(0.0029766343 -4.8268703e-08 1.182224e-06)
(0.0029598495 1.6448407e-08 1.164321e-06)
(0.0029436181 8.1353794e-08 1.1477523e-06)
(0.002927906 1.4602404e-07 1.1321253e-06)
(0.0029126825 2.1005633e-07 1.117119e-06)
(0.0028979201 2.7304837e-07 1.1024396e-06)
(0.0028835935 3.3454251e-07 1.0876605e-06)
(0.0028696773 3.943233e-07 1.0722029e-06)
(0.0028561514 4.5704887e-07 1.0590086e-06)
(0.0028429997 5.2059963e-07 1.0472579e-06)
(0.0028302035 5.8225235e-07 1.0356063e-06)
(0.0028177449 6.4163855e-07 1.0238008e-06)
(0.0028056084 6.9901979e-07 1.0118739e-06)
(0.0027937799 7.545617e-07 9.9986954e-07)
(0.0027822461 8.0835079e-07 9.8781034e-07)
(0.0027709946 8.6046933e-07 9.7571816e-07)
(0.0027600137 9.1102601e-07 9.6360261e-07)
(0.0027492926 9.6019564e-07 9.5144684e-07)
(0.0027388207 1.0080069e-06 9.3926554e-07)
(0.0027285887 1.0528503e-06 9.2746649e-07)
(0.0027185878 1.0958657e-06 9.1582893e-07)
(0.0027088089 1.1374992e-06 9.0425352e-07)
(0.0026992438 1.1777656e-06 8.9275874e-07)
(0.0026898847 1.2166556e-06 8.8136617e-07)
(0.0026807244 1.2541691e-06 8.7008028e-07)
(0.0026717559 1.2903141e-06 8.5890638e-07)
(0.0026629726 1.3251067e-06 8.478521e-07)
(0.0026543682 1.3585738e-06 8.3692298e-07)
(0.0026459367 1.3907405e-06 8.261214e-07)
(0.0026376723 1.4216364e-06 8.1545283e-07)
(0.0026295698 1.45129e-06 8.0491988e-07)
(0.0026216238 1.4797327e-06 7.945229e-07)
(0.0026138294 1.5069905e-06 7.8426316e-07)
(0.002606182 1.533094e-06 7.7414009e-07)
(0.0025986769 1.5580618e-06 7.6415176e-07)
(0.0025913099 1.5819214e-06 7.542948e-07)
(0.0025840769 1.6046809e-06 7.4456382e-07)
(0.0025769739 1.6263488e-06 7.3495225e-07)