/*--------------------------------*- C++ -*----------------------------------*\
  =========                 |
  \\      /  F ield         | OpenFOAM: The Open Source CFD Toolbox
   \\    /   O peration     | Website:  https://openfoam.org
    \\  /    A nd           | Version:  7
     \\/     M anipulation  |
\*---------------------------------------------------------------------------*/
FoamFile
{
    version     2.0;
    format      ascii;
    class       surfaceScalarField;
    location    "2150/water";
    object      phi;
}
// * * * * * * * * * * * * * * * * * * * * * * * * * * * * * * * * * * * * * //

dimensions      [1 0 -1 0 0 0 0];

internalField   nonuniform List<scalar> 
156660
(
9.9057239e-05
6.0010402e-06
6.0528092e-06
8.6847497e-05
6.0555113e-06
6.1542307e-06
7.5687891e-05
5.5111362e-06
5.6484701e-06
6.5441704e-05
5.0404181e-06
5.2057689e-06
5.6267661e-05
4.4956436e-06
4.6783991e-06
4.8318019e-05
3.8797648e-06
4.0698777e-06
4.1624776e-05
3.2524448e-06
3.4407982e-06
3.6124897e-05
2.660462e-06
2.839417e-06
3.1692235e-05
2.1345127e-06
2.2981489e-06
2.8162841e-05
1.6926975e-06
1.8366964e-06
2.5361437e-05
1.3399933e-06
1.4614113e-06
2.3124664e-05
1.0698477e-06
1.1669256e-06
2.1315127e-05
8.6875419e-07
9.4078225e-07
1.9825714e-05
7.2110063e-07
7.6831271e-07
1.8577278e-05
6.1248245e-07
6.3595306e-07
1.7513255e-05
5.3125221e-07
5.3277147e-07
1.6593744e-05
4.6879723e-07
4.5071348e-07
1.5790433e-05
4.191372e-07
3.8417386e-07
1.5082784e-05
3.7829072e-07
3.2935847e-07
1.4455417e-05
3.4367128e-07
2.8369562e-07
1.3896409e-05
3.1361405e-07
2.4539331e-07
1.339622e-05
2.8704449e-07
2.131445e-07
1.2947015e-05
2.6326034e-07
1.8594511e-07
1.2542237e-05
2.4179364e-07
1.6298461e-07
1.2176318e-05
2.2232206e-07
1.435969e-07
1.1844484e-05
2.0461481e-07
1.2721881e-07
1.1542609e-05
1.8849496e-07
1.1337972e-07
1.1267116e-05
1.7381572e-07
1.0167793e-07
1.1014892e-05
1.604627e-07
9.1760808e-08
1.0783252e-05
1.4833971e-07
8.3300595e-08
1.0569851e-05
1.3734905e-07
7.6052109e-08
1.0372614e-05
1.2738864e-07
6.9848316e-08
1.0189731e-05
1.1836806e-07
6.4514819e-08
1.001963e-05
1.1020449e-07
5.9896612e-08
9.8609388e-06
1.0281924e-07
5.5871663e-08
9.7124594e-06
9.6137967e-08
5.2341374e-08
9.5731439e-06
9.0091178e-08
4.9224362e-08
9.4420759e-06
8.4614457e-08
4.6453587e-08
9.3184531e-06
7.9648668e-08
4.3974108e-08
9.2015723e-06
7.5139721e-08
4.1741055e-08
9.0908166e-06
7.1038168e-08
3.9717531e-08
8.9856431e-06
6.7301153e-08
3.7872295e-08
8.8855707e-06
6.3894228e-08
3.617815e-08
8.7901757e-06
6.0780101e-08
3.4614952e-08
8.6990829e-06
5.7926159e-08
3.3166641e-08
8.611959e-06
5.530375e-08
3.1820117e-08
8.5285072e-06
5.2887464e-08
3.0564405e-08
8.4484618e-06
5.0655056e-08
2.9390291e-08
8.3715848e-06
4.8587052e-08
2.8290006e-08
8.2976614e-06
4.666617e-08
2.7257219e-08
8.2264975e-06
4.4877456e-08
2.6286448e-08
8.1579202e-06
4.3208775e-08
2.5368559e-08
8.0917731e-06
4.1649022e-08
2.4498052e-08
8.0279107e-06
4.0187e-08
2.3675372e-08
7.9662005e-06
3.881266e-08
2.289752e-08
7.9065219e-06
3.7518363e-08
2.2160241e-08
7.8487639e-06
3.6297838e-08
2.1460169e-08
7.7928241e-06
3.5145136e-08
2.0794594e-08
7.7386083e-06
3.4054627e-08
2.0161172e-08
7.6860293e-06
3.3021327e-08
1.9557681e-08
7.6350062e-06
3.204077e-08
1.8982262e-08
7.5854641e-06
3.1109058e-08
1.8433077e-08
7.537333e-06
3.0222626e-08
1.7908467e-08
7.4905478e-06
2.9378222e-08
1.7406968e-08
7.4450475e-06
2.8573017e-08
1.69272e-08
7.4007755e-06
2.7804236e-08
1.6467794e-08
7.3576783e-06
2.7069588e-08
1.6027645e-08
7.3157056e-06
2.6367069e-08
1.5605637e-08
7.2748103e-06
2.5694659e-08
1.5200676e-08
7.2349479e-06
2.5050586e-08
1.4811831e-08
7.1960766e-06
2.4433129e-08
1.4438203e-08
7.158157e-06
2.3840678e-08
1.407893e-08
7.1211518e-06
2.3271906e-08
1.3733269e-08
7.0850258e-06
2.27255e-08
1.340051e-08
7.0497456e-06
2.2200203e-08
1.3079906e-08
7.0152798e-06
2.1694891e-08
1.2770894e-08
6.9815984e-06
2.1208589e-08
1.2472766e-08
6.9486733e-06
2.0740245e-08
1.2184937e-08
6.9164775e-06
2.0288985e-08
1.1906794e-08
6.8849857e-06
1.9853932e-08
1.163783e-08
6.8541739e-06
1.9434373e-08
1.1377459e-08
6.8240193e-06
1.9029476e-08
1.1125107e-08
6.7945005e-06
1.8638487e-08
1.0880226e-08
6.7655975e-06
1.8260782e-08
1.0642312e-08
6.7372912e-06
1.7895564e-08
1.0410743e-08
6.709564e-06
1.75421e-08
1.0185085e-08
6.6823995e-06
1.7199629e-08
9.964861e-09
6.6557824e-06
1.6867262e-08
9.7498069e-09
6.6296983e-06
1.6544146e-08
9.5400032e-09
6.6041331e-06
1.6229271e-08
9.3360057e-09
6.5790714e-06
1.5921979e-08
9.1396715e-09
6.554494e-06
1.5622326e-08
8.9551125e-09
6.5303708e-06
1.5332559e-08
8.7906788e-09
6.5066467e-06
1.5060487e-08
8.6635775e-09
6.4832094e-06
1.4827799e-08
8.6095226e-09
6.4598102e-06
1.4693055e-08
8.7060289e-09
6.4358387e-06
1.4826431e-08
9.1451201e-09
6.4096302e-06
1.5741751e-08
1.0466733e-08
6.3782854e-06
1.8026545e-08
1.3318216e-08
3.2300202e-08
2.7923558e-08
0.00010646494
4.1872385e-06
6.4599816e-06
0.0001002019
5.695418e-06
6.6231353e-06
9.3659588e-05
5.7790389e-06
6.2744098e-06
8.7011589e-05
5.6514782e-06
6.0369387e-06
8.0422927e-05
5.366912e-06
5.7173941e-06
7.4094022e-05
4.9022832e-06
5.3063862e-06
6.8167026e-05
4.3278135e-06
4.8516272e-06
6.2722565e-05
3.717891e-06
4.387032e-06
5.7799049e-05
3.1243144e-06
3.9337145e-06
5.3403345e-05
2.5820689e-06
3.5063329e-06
4.9517402e-05
2.1121062e-06
3.1138299e-06
4.6105482e-05
1.7220197e-06
2.7597473e-06
4.3121558e-05
1.4089355e-06
2.4437429e-06
4.0515558e-05
1.1637552e-06
2.163346e-06
3.8237948e-05
9.7485848e-07
1.9152336e-06
3.6242683e-05
8.3055973e-07
1.6959573e-06
3.4488759e-05
7.2043695e-07
1.5022849e-06
3.2940716e-05
6.3586295e-07
1.3313172e-06
3.1568463e-05
5.7005006e-07
1.1804931e-06
3.0346733e-05
5.1784896e-07
1.0475522e-06
2.9254398e-05
4.7545953e-07
9.3049032e-07
2.8273782e-05
4.4013957e-07
8.2752022e-07
2.7390054e-05
4.0994891e-07
7.3704006e-07
2.6590699e-05
3.8353956e-07
6.5760855e-07
2.5865102e-05
3.5998889e-07
5.879307e-07
2.5204197e-05
3.3867633e-07
5.2684259e-07
2.4600205e-05
3.191836e-07
4.7330346e-07
2.4046429e-05
3.0120192e-07
4.2639014e-07
2.3537073e-05
2.8455207e-07
3.8526713e-07
2.3067119e-05
2.6911102e-07
3.4918239e-07
2.2632208e-05
2.5478166e-07
3.1747785e-07
2.2228528e-05
2.4147382e-07
2.8959534e-07
2.1852744e-05
2.2911073e-07
2.6504122e-07
2.1501947e-05
2.1762893e-07
2.4337255e-07
2.1173591e-05
2.0696951e-07
2.242057e-07
2.0865444e-05
1.9707566e-07
2.0720868e-07
2.0575549e-05
1.8789251e-07
1.9209398e-07
2.0302183e-05
1.7936723e-07
1.7861344e-07
2.0043829e-05
1.7144907e-07
1.6655324e-07
1.979915e-05
1.6408981e-07
1.5572941e-07
1.956696e-05
1.5724383e-07
1.4598404e-07
1.934621e-05
1.5086894e-07
1.3718218e-07
1.9135969e-05
1.4492651e-07
1.2920883e-07
1.8935407e-05
1.3937903e-07
1.2196307e-07
1.8743783e-05
1.341923e-07
1.1535763e-07
1.8560435e-05
1.293351e-07
1.0931725e-07
1.8384766e-05
1.2477906e-07
1.0377712e-07
1.8216241e-05
1.2049853e-07
9.8681266e-08
1.8054377e-05
1.1647015e-07
9.3981313e-08
1.7898734e-05
1.1267293e-07
8.9635432e-08
1.7748917e-05
1.0908821e-07
8.5607025e-08
1.7604563e-05
1.0570004e-07
8.1862414e-08
1.7465345e-05
1.0249338e-07
7.8373263e-08
1.7330962e-05
9.9452973e-08
7.5116998e-08
1.7201138e-05
9.656441e-08
7.2072714e-08
1.7075619e-05
9.3816624e-08
6.9221164e-08
1.695417e-05
9.120107e-08
6.6545123e-08
1.6836577e-05
8.8709102e-08
6.4029542e-08
1.6722638e-05
8.6331962e-08
6.1661074e-08
1.661217e-05
8.4061744e-08
5.9427709e-08
1.6505001e-05
8.1891541e-08
5.7318838e-08
1.640097e-05
7.9814937e-08
5.5324813e-08
1.6299929e-05
7.7826198e-08
5.3437116e-08
1.620174e-05
7.5919879e-08
5.1647906e-08
1.6106272e-05
7.4091054e-08
4.9950115e-08
1.6013404e-05
7.2334964e-08
4.8337364e-08
1.5923022e-05
7.0647693e-08
4.6803851e-08
1.5835019e-05
6.9025735e-08
4.5344281e-08
1.5749294e-05
6.7465526e-08
4.3953664e-08
1.5665753e-05
6.5963794e-08
4.262768e-08
1.5584307e-05
6.4517335e-08
4.1362189e-08
1.5504871e-05
6.3123408e-08
4.0153358e-08
1.5427365e-05
6.177929e-08
3.8997741e-08
1.5351716e-05
6.0482537e-08
3.7892271e-08
1.5277852e-05
5.9230831e-08
3.6833841e-08
1.5205705e-05
5.8021984e-08
3.5819726e-08
1.5135212e-05
5.685401e-08
3.4847347e-08
1.5066313e-05
5.5724984e-08
3.3914345e-08
1.499895e-05
5.4633121e-08
3.3018366e-08
1.493307e-05
5.3576707e-08
3.2157409e-08
1.4868621e-05
5.2554175e-08
3.1329398e-08
1.4805554e-05
5.1563945e-08
3.0532416e-08
1.4743823e-05
5.0604488e-08
2.976466e-08
1.4683385e-05
4.9674252e-08
2.9024385e-08
1.4624199e-05
4.8771791e-08
2.8309852e-08
1.4566226e-05
4.7895447e-08
2.761959e-08
1.4509431e-05
4.7043497e-08
2.6951982e-08
1.4453778e-05
4.6214118e-08
2.630578e-08
1.4399237e-05
4.5405412e-08
2.5679908e-08
1.4345777e-05
4.4615715e-08
2.5073755e-08
1.4293367e-05
4.3844244e-08
2.4487713e-08
1.4241972e-05
4.3092856e-08
2.3923769e-08
1.4191548e-05
4.2369916e-08
2.3387164e-08
1.4142019e-05
4.1699294e-08
2.2889645e-08
1.4093249e-05
4.1141602e-08
2.245664e-08
1.4044951e-05
4.0844612e-08
2.2146549e-08
1.3996485e-05
4.1169183e-08
2.2123036e-08
1.3946229e-05
4.301228e-08
2.2985364e-08
1.389015e-05
4.8540258e-08
2.5565768e-08
6.3281521e-08
5.0000861e-08
0.00010603565
2.7876425e-06
6.4750379e-06
0.00010074799
4.4145412e-06
6.5685292e-06
9.5493515e-05
4.8594028e-06
6.1741158e-06
9.0256432e-05
4.930369e-06
5.9581921e-06
8.5101366e-05
4.8311767e-06
5.6908012e-06
8.0102875e-05
4.5561761e-06
5.3445981e-06
7.5322251e-05
4.1469521e-06
4.9614853e-06
7.0803266e-05
3.6678926e-06
4.5689837e-06
6.6576264e-05
3.1701903e-06
4.1811254e-06
6.2660725e-05
2.6900109e-06
3.8075976e-06
5.9065443e-05
2.2519319e-06
3.4554566e-06
5.5788936e-05
1.8697304e-06
3.1287958e-06
5.2820978e-05
1.5477473e-06
2.8291458e-06
5.014479e-05
1.2836302e-06
2.5563139e-06
4.7739304e-05
1.07123e-06
2.309114e-06
4.5581183e-05
9.0281501e-07
2.0858661e-06
4.3646423e-05
7.704878e-07
1.884709e-06
4.1911533e-05
6.6697374e-07
1.7037792e-06
4.0354306e-05
5.8598199e-07
1.541295e-06
3.8954268e-05
5.2230221e-07
1.3955849e-06
3.769288e-05
4.7175606e-07
1.265091e-06
3.6553576e-05
4.3107986e-07
1.1483634e-06
3.552169e-05
3.9778207e-07
1.0440533e-06
3.4584322e-05
3.6999882e-07
9.5090831e-07
3.3730181e-05
3.4635984e-07
8.6777019e-07
3.2949411e-05
3.2587762e-07
7.9356872e-07
3.2233419e-05
3.0784048e-07
7.2733487e-07
3.1574711e-05
2.9172981e-07
6.6818103e-07
3.0966769e-05
2.7719263e-07
6.153013e-07
3.0403928e-05
2.6398097e-07
5.679702e-07
2.9881258e-05
2.5190847e-07
5.2554318e-07
2.9394455e-05
2.4082714e-07
4.8744998e-07
2.8939761e-05
2.3062158e-07
4.5318325e-07
2.8513895e-05
2.2120151e-07
4.2229387e-07
2.8113985e-05
2.1249194e-07
3.9438678e-07
2.7737518e-05
2.0442795e-07
3.691149e-07
2.7382285e-05
1.969519e-07
3.4617385e-07
2.7046344e-05
1.9001176e-07
3.252968e-07
2.6727982e-05
1.8355996e-07
3.0625045e-07
2.6425689e-05
1.7755277e-07
2.8883085e-07
2.6138123e-05
1.7195003e-07
2.7285985e-07
2.5864094e-05
1.6671514e-07
2.5818185e-07
2.5602546e-05
1.6181455e-07
2.4466093e-07
2.535253e-05
1.5721707e-07
2.3217767e-07
2.51132e-05
1.5289442e-07
2.2062728e-07
2.4883797e-05
1.4882094e-07
2.0991773e-07
2.4663634e-05
1.4497364e-07
1.9996813e-07
2.4452094e-05
1.4133183e-07
1.9070706e-07
2.4248615e-05
1.3787697e-07
1.8207154e-07
2.405269e-05
1.3459268e-07
1.740057e-07
2.3863854e-05
1.3146461e-07
1.6645991e-07
2.3681684e-05
1.2848057e-07
1.5938926e-07
2.3505794e-05
1.2562918e-07
1.5275414e-07
2.3335829e-05
1.2289869e-07
1.4651969e-07
2.3171462e-05
1.2027632e-07
1.4065458e-07
2.3012394e-05
1.1775472e-07
1.3513021e-07
2.2858345e-05
1.153297e-07
1.2992043e-07
2.2709057e-05
1.1299536e-07
1.2500171e-07
2.2564291e-05
1.1074516e-07
1.2035289e-07
2.2423824e-05
1.0857347e-07
1.1595457e-07
2.2287451e-05
1.0647549e-07
1.1178923e-07
2.2154978e-05
1.0444699e-07
1.0784081e-07
2.2026226e-05
1.0248421e-07
1.0409459e-07
2.1901025e-05
1.0058353e-07
1.0053718e-07
2.1779218e-05
9.8741549e-08
9.7156166e-08
2.1660658e-05
9.6954912e-08
9.3940283e-08
2.1545205e-05
9.5221271e-08
9.0879047e-08
2.1432729e-05
9.3538802e-08
8.7962779e-08
2.1323107e-05
9.190534e-08
8.5182597e-08
2.1216222e-05
9.0318524e-08
8.2530165e-08
2.1111965e-05
8.8776421e-08
7.9997909e-08
2.1010233e-05
8.7277132e-08
7.757864e-08
2.0910927e-05
8.5818948e-08
7.5265868e-08
2.0813956e-05
8.4400316e-08
7.3053441e-08
2.0719232e-05
8.3019669e-08
7.0935658e-08
2.0626671e-05
8.1675641e-08
6.8907196e-08
2.0536195e-05
8.0366834e-08
6.6963088e-08
2.0447729e-05
7.9091957e-08
6.509875e-08
2.0361203e-05
7.7849832e-08
6.330977e-08
2.0276548e-05
7.6639244e-08
6.1592045e-08
2.0193702e-05
7.5458969e-08
5.9941771e-08
2.0112602e-05
7.4307941e-08
5.8355201e-08
2.0033193e-05
7.318493e-08
5.682907e-08
1.9955418e-05
7.2088606e-08
5.5359988e-08
1.9879228e-05
7.1017616e-08
5.3944826e-08
1.9804572e-05
6.9970407e-08
5.2580744e-08
1.9731406e-05
6.894527e-08
5.1264805e-08
1.9659685e-05
6.7940076e-08
4.9994386e-08
1.9589371e-05
6.695301e-08
4.8767026e-08
1.9520423e-05
6.5982357e-08
4.7580515e-08
1.9452807e-05
6.5028042e-08
4.6433083e-08
1.9386482e-05
6.4094096e-08
4.5323718e-08
1.9321404e-05
6.3194676e-08
4.4253048e-08
1.9257511e-05
6.2366327e-08
4.322524e-08
1.9194705e-05
6.1695137e-08
4.2253134e-08
1.9132798e-05
6.1374069e-08
4.1377394e-08
1.9071394e-05
6.1822429e-08
4.0750663e-08
1.9009424e-05
6.3924723e-08
4.1057594e-08
1.8944661e-05
6.9304682e-08
4.3998845e-08
7.9170947e-08
7.4661529e-08
0.0001054937
1.9169871e-06
6.4880406e-06
0.00010005365
3.2729596e-06
6.5816334e-06
9.4926077e-05
3.8288996e-06
6.1580776e-06
8.9946373e-05
3.9838109e-06
5.9262629e-06
8.5163276e-05
3.9595077e-06
5.6547657e-06
8.0619137e-05
3.7899369e-06
5.3103784e-06
7.6329462e-05
3.5015547e-06
4.9350725e-06
7.230016e-05
3.1412013e-06
4.5559928e-06
6.8534206e-05
2.7514802e-06
4.1846641e-06
6.5032983e-05
2.3633493e-06
3.8278852e-06
6.1795789e-05
1.9984143e-06
3.490711e-06
5.8818843e-05
1.6703759e-06
3.176301e-06
5.6094717e-05
1.3858295e-06
2.886043e-06
5.3612488e-05
1.1457945e-06
2.6200649e-06
5.1358373e-05
9.4764116e-07
2.3777043e-06
4.9316593e-05
7.8676783e-07
2.1578272e-06
4.7470246e-05
6.5779543e-07
1.9590391e-06
4.5802069e-05
5.5532541e-07
1.7798252e-06
4.4295042e-05
4.7437117e-07
1.6186378e-06
4.293283e-05
4.105667e-07
1.473948e-06
4.1700078e-05
3.6023238e-07
1.3442759e-06
4.0582591e-05
3.2035742e-07
1.2282094e-06
3.956742e-05
2.8853737e-07
1.1244154e-06
3.8642881e-05
2.6289066e-07
1.0316467e-06
3.7798527e-05
2.4196986e-07
9.4874401e-07
3.7025076e-05
2.2467704e-07
8.7465169e-07
3.6314324e-05
2.1018901e-07
8.0840411e-07
3.5659057e-05
1.9788606e-07
7.4911041e-07
3.5052961e-05
1.8731581e-07
6.9597283e-07
3.4490519e-05
1.781487e-07
6.4827381e-07
3.3966922e-05
1.7013167e-07
6.0537441e-07
3.3477973e-05
1.6306725e-07
5.6670865e-07
3.3020016e-05
1.5680293e-07
5.3177541e-07
3.2589865e-05
1.5122052e-07
5.001324e-07
3.218474e-05
1.4622559e-07
4.7139137e-07
3.1802215e-05
1.4174073e-07
4.4521234e-07
3.1440168e-05
1.3770094e-07
4.2129809e-07
3.1096739e-05
1.3405092e-07
3.9938921e-07
3.0770297e-05
1.307429e-07
3.7925952e-07
3.0459402e-05
1.2773517e-07
3.6071192e-07
3.0162787e-05
1.2499091e-07
3.4357479e-07
2.9879325e-05
1.2247788e-07
3.2769854e-07
2.960802e-05
1.2016734e-07
3.1295271e-07
2.934798e-05
1.1803383e-07
2.9922355e-07
2.9098408e-05
1.1605463e-07
2.8641136e-07
2.885859e-05
1.1420984e-07
2.7442906e-07
2.8627882e-05
1.1248195e-07
2.632e-07
2.8405701e-05
1.108556e-07
2.5265686e-07
2.819152e-05
1.0931758e-07
2.4274022e-07
2.7984859e-05
1.0785647e-07
2.3339755e-07
2.7785279e-05
1.0646279e-07
2.2458214e-07
2.7592378e-05
1.0512872e-07
2.1625217e-07
2.740579e-05
1.0384735e-07
2.0837035e-07
2.7225174e-05
1.0261117e-07
2.0090359e-07
2.705022e-05
1.0140749e-07
1.9382257e-07
2.6880641e-05
1.0023382e-07
1.8710042e-07
2.6716166e-05
9.9092355e-08
1.8071227e-07
2.6556546e-05
9.7980009e-08
1.7463558e-07
2.6401548e-05
9.689256e-08
1.6885014e-07
2.6250957e-05
9.5827095e-08
1.6333742e-07
2.610457e-05
9.4781689e-08
1.5808041e-07
2.5962199e-05
9.3754741e-08
1.5306363e-07
2.5823666e-05
9.274489e-08
1.4827259e-07
2.5688804e-05
9.1751019e-08
1.4369414e-07
2.5557458e-05
9.0771766e-08
1.39316e-07
2.5429481e-05
8.9805219e-08
1.3512695e-07
2.5304734e-05
8.8851495e-08
1.3111645e-07
2.5183087e-05
8.7911237e-08
1.2727465e-07
2.5064416e-05
8.6983935e-08
1.235924e-07
2.4948604e-05
8.6068899e-08
1.2006119e-07
2.4835542e-05
8.5165774e-08
1.1667303e-07
2.4725124e-05
8.4274345e-08
1.1342048e-07
2.4617252e-05
8.3394274e-08
1.1029658e-07
2.4511832e-05
8.2525458e-08
1.072948e-07
2.4408775e-05
8.1667757e-08
1.0440902e-07
2.4307997e-05
8.0820966e-08
1.0163342e-07
2.4209416e-05
7.9985038e-08
9.8962646e-08
2.4112956e-05
7.9159755e-08
9.6391543e-08
2.4018546e-05
7.8345032e-08
9.3915325e-08
2.3926115e-05
7.7540697e-08
9.1529301e-08
2.3835598e-05
7.6746547e-08
8.9229258e-08
2.3746933e-05
7.5962338e-08
8.7011041e-08
2.3660059e-05
7.5187628e-08
8.4870728e-08
2.3574922e-05
7.4421951e-08
8.2804543e-08
2.3491466e-05
7.3664616e-08
8.080893e-08
2.3409641e-05
7.291462e-08
7.8880378e-08
2.33294e-05
7.2170686e-08
7.7015465e-08
2.3250698e-05
7.1431309e-08
7.5210992e-08
2.3173492e-05
7.0694847e-08
7.3463601e-08
2.3097745e-05
6.9960243e-08
7.1770072e-08
2.3023418e-05
6.9227995e-08
7.0127034e-08
2.2950477e-05
6.8503492e-08
6.8531185e-08
2.2878889e-05
6.7802878e-08
6.69797e-08
2.2808619e-05
6.716506e-08
6.5471584e-08
2.2739625e-05
6.6675269e-08
6.4013351e-08
2.267185e-05
6.6507072e-08
6.2642318e-08
2.2605149e-05
6.6990742e-08
6.1532371e-08
2.2538888e-05
6.8686064e-08
6.1499876e-08
2.2471121e-05
7.2226989e-08
6.4845109e-08
7.6722827e-08
9.8461287e-08
0.0001051979
1.3340884e-06
6.4961221e-06
9.9496561e-05
2.3731022e-06
6.6011947e-06
9.4262459e-05
2.9019223e-06
6.1610799e-06
8.9251186e-05
3.0856642e-06
5.9094196e-06
8.4493497e-05
3.0947346e-06
5.6224614e-06
8.0033635e-05
2.9846656e-06
5.265134e-06
7.5876907e-05
2.7790155e-06
4.8792667e-06
7.2014635e-05
2.5106844e-06
4.4927895e-06
6.8436293e-05
2.2128728e-06
4.1169489e-06
6.5131387e-05
1.9107259e-06
3.7575292e-06
6.208941e-05
1.6217321e-06
3.4186596e-06
5.9299432e-05
1.3573877e-06
3.1029661e-06
5.6749589e-05
1.1240344e-06
2.8116387e-06
5.4426788e-05
9.2377945e-07
2.5448157e-06
5.2316754e-05
7.55728e-07
2.3019466e-06
5.0404313e-05
6.1717855e-07
2.0820302e-06
4.8673788e-05
5.0454351e-07
1.8837772e-06
4.7109414e-05
4.1397179e-07
1.7057274e-06
4.5695713e-05
3.4173648e-07
1.5463363e-06
4.4417792e-05
2.8445146e-07
1.4040359e-06
4.3261575e-05
2.3917112e-07
1.277278e-06
4.2213952e-05
2.0341505e-07
1.1645652e-06
4.1262871e-05
1.7514745e-07
1.0644718e-06
4.039737e-05
1.5273233e-07
9.7565898e-07
3.9607583e-05
1.348753e-07
8.9688144e-07
3.8884688e-05
1.205557e-07
8.270164e-07
3.8220848e-05
1.0901091e-07
7.6501855e-07
3.7609155e-05
9.9633863e-08
7.0994488e-07
3.7043542e-05
9.197747e-08
6.6095087e-07
3.6518702e-05
8.5705843e-08
6.1728289e-07
3.6030009e-05
8.0552397e-08
5.782731e-07
3.5573433e-05
7.6308259e-08
5.4333414e-07
3.5145475e-05
7.2811275e-08
5.1195031e-07
3.4743091e-05
6.9934092e-08
4.8367024e-07
3.4363641e-05
6.7575443e-08
4.5810066e-07
3.4004828e-05
6.5652885e-08
4.3489996e-07
3.3664659e-05
6.4098611e-08
4.1377209e-07
3.3341393e-05
6.2855915e-08
3.9446093e-07
3.3033513e-05
6.1877022e-08
3.7674527e-07
3.2739693e-05
6.1121072e-08
3.6043425e-07
3.2458768e-05
6.0553079e-08
3.4536332e-07
3.2189712e-05
6.0142694e-08
3.313906e-07
3.1931622e-05
5.9863664e-08
3.1839374e-07
3.1683696e-05
5.9693124e-08
3.0626734e-07
3.1445219e-05
5.9611192e-08
2.9492014e-07
3.1215555e-05
5.9600632e-08
2.8427314e-07
3.0994132e-05
5.9646509e-08
2.7425807e-07
3.0780436e-05
5.9736196e-08
2.6481542e-07
3.0574002e-05
5.9858677e-08
2.5589337e-07
3.0374407e-05
6.000494e-08
2.4744662e-07
3.0181267e-05
6.0167668e-08
2.394355e-07
2.9994229e-05
6.0341251e-08
2.3182488e-07
2.9812971e-05
6.0521763e-08
2.245837e-07
2.9637193e-05
6.0704459e-08
2.1768455e-07
2.9466629e-05
6.0867278e-08
2.1110457e-07
2.9301024e-05
6.1017005e-08
2.0482183e-07
2.9140139e-05
6.1160884e-08
1.9881568e-07
2.8983756e-05
6.1294978e-08
1.9306836e-07
2.8831669e-05
6.1415506e-08
1.8756386e-07
2.8683688e-05
6.1520943e-08
1.8228763e-07
2.8539633e-05
6.1610538e-08
1.7722635e-07
2.8399336e-05
6.1683791e-08
1.7236783e-07
2.8262639e-05
6.1740492e-08
1.6770092e-07
2.8129394e-05
6.1780672e-08
1.632152e-07
2.7999461e-05
6.1803886e-08
1.5890122e-07
2.7872709e-05
6.1807365e-08
1.5475034e-07
2.7749012e-05
6.1793591e-08
1.5075443e-07
2.7628253e-05
6.1764833e-08
1.4690559e-07
2.7510319e-05
6.1720983e-08
1.4319661e-07
2.7395105e-05
6.166211e-08
1.3962081e-07
2.728251e-05
6.1588618e-08
1.3617201e-07
2.7172439e-05
6.1501047e-08
1.3284418e-07
2.7064802e-05
6.1399998e-08
1.2963194e-07
2.6959511e-05
6.1285955e-08
1.2652992e-07
2.6856486e-05
6.1159531e-08
1.2353327e-07
2.6755649e-05
6.1021337e-08
1.2063732e-07
2.6656924e-05
6.0871854e-08
1.1783767e-07
2.6560242e-05
6.0711719e-08
1.1513014e-07
2.6465535e-05
6.0541382e-08
1.1251077e-07
2.6372738e-05
6.0361316e-08
1.0997577e-07
2.6281791e-05
6.0171949e-08
1.0752159e-07
2.6192636e-05
5.9973536e-08
1.0514471e-07
2.6105215e-05
5.9766299e-08
1.0284182e-07
2.6019477e-05
5.955024e-08
1.0060972e-07
2.5935371e-05
5.9325149e-08
9.8445286e-08
2.585285e-05
5.9090519e-08
9.6345392e-08
2.5771868e-05
5.8845482e-08
9.4306882e-08
2.5692384e-05
5.8588988e-08
9.2326719e-08
2.5614357e-05
5.8319777e-08
9.0401449e-08
2.5537753e-05
5.8037085e-08
8.8527333e-08
2.5462539e-05
5.7741633e-08
8.6700223e-08
2.5388689e-05
5.7438416e-08
8.491518e-08
2.5316184e-05
5.7141434e-08
8.3166639e-08
2.5245017e-05
5.6882609e-08
8.1449641e-08
2.51752e-05
5.672605e-08
7.9765814e-08
2.510677e-05
5.6787909e-08
7.8149193e-08
2.5039729e-05
5.7251638e-08
7.6780992e-08
2.4973573e-05
5.8330963e-08
7.6510212e-08
2.4906079e-05
5.9989485e-08
7.9732161e-08
6.0715025e-08
1.1287823e-07
0.00010503672
9.0789372e-07
6.5005614e-06
9.9140653e-05
1.6524913e-06
6.6166801e-06
9.3788329e-05
2.0825241e-06
6.1717217e-06
8.8708526e-05
2.2549373e-06
5.91053e-06
8.3909682e-05
2.278404e-06
5.6151748e-06
7.9437109e-05
2.2074821e-06
5.2497564e-06
7.5296201e-05
2.0645348e-06
4.8553893e-06
7.1474034e-05
1.8722543e-06
4.4605969e-06
6.7955013e-05
1.6547667e-06
4.0771269e-06
6.4723621e-05
1.4313505e-06
3.7107669e-06
6.1764423e-05
1.2154298e-06
3.3655007e-06
5.9062056e-05
1.015864e-06
3.0438911e-06
5.6601108e-05
8.3782742e-07
2.7471548e-06
5.4365944e-05
6.8344644e-07
2.475497e-06
5.2340648e-05
5.525853e-07
2.2284383e-06
5.0509125e-05
4.4366551e-07
2.0050361e-06
4.8855299e-05
3.5433456e-07
1.8040352e-06
4.7363353e-05
2.8193593e-07
1.6239821e-06
4.6017963e-05
2.2381346e-07
1.4633127e-06
4.4804502e-05
1.7749381e-07
1.3204181e-06
4.3709199e-05
1.4078088e-07
1.1936935e-06
4.2719248e-05
1.1179156e-07
1.081575e-06
4.1822875e-05
8.8954541e-08
9.8256582e-07
4.1009364e-05
7.0988018e-08
8.9525471e-07
4.0269054e-05
5.6861853e-08
8.1832383e-07
3.9593306e-05
4.5719141e-08
7.5058478e-07
3.8974405e-05
3.6977855e-08
6.9093436e-07
3.8405585e-05
3.0067364e-08
6.383863e-07
3.7880869e-05
2.4650859e-08
5.9204241e-07
3.7395029e-05
2.0439961e-08
5.5110608e-07
3.6943514e-05
1.7190253e-08
5.1487716e-07
3.6522366e-05
1.4716746e-08
4.8273955e-07
3.6128148e-05
1.2874764e-08
4.5415389e-07
3.5757883e-05
1.1549919e-08
4.2864946e-07
3.5408991e-05
1.0650762e-08
4.0581705e-07
3.5079238e-05
1.0103604e-08
3.8530226e-07
3.4766689e-05
9.84824e-09
3.6679878e-07
3.4469668e-05
9.835086e-09
3.5004234e-07
3.4186716e-05
1.0022921e-08
3.348055e-07
3.3916567e-05
1.0377032e-08
3.2089285e-07
3.3658116e-05
1.0868084e-08
3.0813662e-07
3.3410395e-05
1.1470949e-08
2.9639284e-07
3.3172556e-05
1.2164225e-08
2.8553827e-07
3.2943852e-05
1.2929297e-08
2.7546717e-07
3.2723625e-05
1.3750175e-08
2.6608893e-07
3.2511286e-05
1.4613067e-08
2.5732573e-07
3.2306316e-05
1.5506237e-08
2.4911066e-07
3.2108246e-05
1.6419596e-08
2.4138623e-07
3.1916658e-05
1.7344621e-08
2.3410269e-07
3.1731171e-05
1.8274328e-08
2.2721714e-07
3.1551444e-05
1.9203185e-08
2.2069214e-07
3.1377162e-05
2.0127742e-08
2.1449507e-07
3.1208038e-05
2.1048665e-08
2.0859683e-07
3.10438e-05
2.1972772e-08
2.0297054e-07
3.0884232e-05
2.2827837e-08
1.9760739e-07
3.0729103e-05
2.3662961e-08
1.9248228e-07
3.05782e-05
2.4490036e-08
1.8757383e-07
3.0431331e-05
2.5296296e-08
1.8286762e-07
3.0288318e-05
2.6077988e-08
1.7835076e-07
3.0148994e-05
2.6834308e-08
1.7401106e-07
3.0013202e-05
2.7564706e-08
1.6983756e-07
2.9880797e-05
2.8268974e-08
1.6582024e-07
2.975164e-05
2.8947447e-08
1.6195015e-07
2.96256e-05
2.9600789e-08
1.5821897e-07
2.9502557e-05
3.0228549e-08
1.5461917e-07
2.9382396e-05
3.0823586e-08
1.5114465e-07
2.9265007e-05
3.1393107e-08
1.4778876e-07
2.9150287e-05
3.1939583e-08
1.4454539e-07
2.9038137e-05
3.2461884e-08
1.4140901e-07
2.8928465e-05
3.2960075e-08
1.3837462e-07
2.8821181e-05
3.3434703e-08
1.354375e-07
2.8716203e-05
3.3886373e-08
1.3259327e-07
2.8613449e-05
3.431555e-08
1.2983785e-07
2.8512845e-05
3.4722886e-08
1.2716735e-07
2.8414317e-05
3.5108995e-08
1.2457815e-07
2.8317797e-05
3.5474442e-08
1.2206681e-07
2.8223219e-05
3.5819919e-08
1.1963007e-07
2.813052e-05
3.614594e-08
1.1726492e-07
2.803964e-05
3.6453049e-08
1.1496837e-07
2.7950522e-05
3.6741881e-08
1.1273769e-07
2.7863111e-05
3.7012814e-08
1.1057027e-07
2.7777354e-05
3.7266219e-08
1.0846341e-07
2.7693204e-05
3.7502444e-08
1.0641473e-07
2.761061e-05
3.7721605e-08
1.0442175e-07
2.752953e-05
3.7923556e-08
1.0248203e-07
2.7449919e-05
3.8107969e-08
1.0059306e-07
2.7371738e-05
3.8274282e-08
9.8752282e-08
2.7294949e-05
3.8421554e-08
9.6956901e-08
2.7219516e-05
3.8548741e-08
9.5203648e-08
2.714541e-05
3.8655132e-08
9.3488607e-08
2.7072603e-05
3.8741147e-08
9.1806959e-08
2.7001079e-05
3.881027e-08
9.0152342e-08
2.6930832e-05
3.8872145e-08
8.8516569e-08
2.6861876e-05
3.8947387e-08
8.6890516e-08
2.679426e-05
3.9073546e-08
8.526921e-08
2.6728065e-05
3.9306985e-08
8.3675946e-08
2.6663337e-05
3.9708367e-08
8.2271159e-08
2.659956e-05
4.0272047e-08
8.183617e-08
2.6534295e-05
4.0698031e-08
8.4555726e-08
3.9620843e-08
1.1507128e-07
0.00010494757
5.681108e-07
6.5033076e-06
9.8925416e-05
1.0462983e-06
6.6283517e-06
9.3480449e-05
1.3439844e-06
6.1835066e-06
8.8341777e-05
1.4751323e-06
5.9184763e-06
8.3502084e-05
1.4993911e-06
5.6187065e-06
7.9004057e-05
1.4572411e-06
5.2482679e-06
7.4853978e-05
1.3667382e-06
4.8478757e-06
7.1037378e-05
1.2423973e-06
4.4464569e-06
6.7536062e-05
1.0997693e-06
4.0563128e-06
6.4331998e-05
9.5192359e-07
3.683491e-06
6.1407318e-05
8.0805755e-07
3.3320524e-06
5.8744339e-05
6.7422203e-07
3.0046209e-06
5.6325632e-05
5.5404399e-07
2.7024907e-06
5.4133973e-05
4.4916747e-07
2.4259383e-06
5.2152298e-05
3.5972399e-07
2.174536e-06
5.0363747e-05
2.8484512e-07
1.9473717e-06
4.875178e-05
2.2310006e-07
1.7432015e-06
4.7300339e-05
1.7281169e-07
1.5605646e-06
4.5994012e-05
1.3226573e-07
1.3978747e-06
4.4818177e-05
9.9840021e-08
1.2534891e-06
4.3759121e-05
7.4075604e-08
1.1257614e-06
4.2804123e-05
5.3707636e-08
1.0130814e-06
4.1941503e-05
3.7671236e-08
9.1390375e-07
4.1160627e-05
2.5096486e-08
8.267673e-07
4.0451891e-05
1.5294197e-08
7.5030388e-07
3.980679e-05
7.5281865e-09
6.8329173e-07
3.9217543e-05
1.6727513e-09
6.2455202e-07
3.8677513e-05
-3.0331232e-09
5.7313081e-07
3.8180739e-05
-6.6486844e-09
5.2807354e-07
3.7722004e-05
-9.359496e-09
4.8853452e-07
3.7296777e-05
-1.1371808e-08
4.5378926e-07
3.6901112e-05
-1.2818239e-08
4.2319913e-07
3.6531588e-05
-1.3805295e-08
3.9620479e-07
3.6185236e-05
-1.4417484e-08
3.7231876e-07
3.5859491e-05
-1.472191e-08
3.5111775e-07
3.5552132e-05
-1.4772652e-08
3.3223578e-07
3.5261237e-05
-1.461395e-08
3.153573e-07
3.4985143e-05
-1.4282212e-08
3.0021089e-07
3.472241e-05
-1.3807707e-08
2.8656374e-07
3.4471787e-05
-1.321589e-08
2.7421631e-07
3.4232185e-05
-1.2528166e-08
2.6299772e-07
3.4002657e-05
-1.1762758e-08
2.5276176e-07
3.3782373e-05
-1.0935221e-08
2.433834e-07
3.3570606e-05
-1.0058751e-08
2.3475558e-07
3.3366714e-05
-9.1447278e-09
2.2678674e-07
3.3170131e-05
-8.2028173e-09
2.1939831e-07
3.2980356e-05
-7.2412263e-09
2.12523e-07
3.279694e-05
-6.2668713e-09
2.0610283e-07
3.2619482e-05
-5.2855421e-09
2.0008783e-07
3.2447623e-05
-4.3017971e-09
1.9443478e-07
3.228104e-05
-3.3190438e-09
1.8910585e-07
3.2119438e-05
-2.3383295e-09
1.8406734e-07
3.1962554e-05
-1.353061e-09
1.7928646e-07
3.1810075e-05
-2.7630151e-10
1.7472766e-07
3.1661878e-05
5.8588168e-10
1.7043907e-07
3.1517732e-05
1.4356396e-09
1.6637297e-07
3.1377429e-05
2.3038282e-09
1.6248957e-07
3.1240792e-05
3.158655e-09
1.5877485e-07
3.1107656e-05
3.9969957e-09
1.5521718e-07
3.0977867e-05
4.8171869e-09
1.5180546e-07
3.0851284e-05
5.6179777e-09
1.4852969e-07
3.0727773e-05
6.3990474e-09
1.4538077e-07
3.0607209e-05
7.160922e-09
1.4235056e-07
3.0489473e-05
7.9059321e-09
1.3943119e-07
3.037445e-05
8.6357489e-09
1.3661577e-07
3.0262049e-05
9.3206827e-09
1.3390399e-07
3.0152163e-05
9.9938184e-09
1.3128564e-07
3.0044697e-05
1.0650409e-08
1.2875511e-07
2.9939564e-05
1.1286729e-08
1.2630828e-07
2.983668e-05
1.1903192e-08
1.2394088e-07
2.9735965e-05
1.2500152e-08
1.2164885e-07
2.9637345e-05
1.3077872e-08
1.1942844e-07
2.9540748e-05
1.363672e-08
1.1727617e-07
2.9446105e-05
1.4176989e-08
1.1518881e-07
2.9353352e-05
1.4699166e-08
1.1316339e-07
2.9262425e-05
1.520353e-08
1.1119706e-07
2.9173268e-05
1.5690482e-08
1.0928709e-07
2.9085822e-05
1.6160407e-08
1.0743106e-07
2.9000035e-05
1.6613627e-08
1.0562663e-07
2.8915855e-05
1.70504e-08
1.0387155e-07
2.8833233e-05
1.7471133e-08
1.0216364e-07
2.8752123e-05
1.7875984e-08
1.0050082e-07
2.8672479e-05
1.8265122e-08
9.8881114e-08
2.8594259e-05
1.8638558e-08
9.7302484e-08
2.8517424e-05
1.8996228e-08
9.5762959e-08
2.8441934e-05
1.9337827e-08
9.426032e-08
2.8367753e-05
1.9662814e-08
9.2792337e-08
2.8294848e-05
1.9970522e-08
9.1356264e-08
2.8223187e-05
2.0260048e-08
8.9948873e-08
2.8152746e-05
2.0530725e-08
8.8565912e-08
2.8083503e-05
2.0782625e-08
8.7201799e-08
2.8015447e-05
2.1017556e-08
8.5848703e-08
2.7948582e-05
2.1240746e-08
8.4495837e-08
2.7882937e-05
2.1462744e-08
8.3129529e-08
2.7818574e-05
2.1699993e-08
8.1736546e-08
2.7755588e-05
2.1969262e-08
8.0324341e-08
2.7694014e-05
2.2266183e-08
7.9016093e-08
2.7633299e-05
2.2506297e-08
7.8480658e-08
2.7571004e-05
2.2393435e-08
8.0599454e-08
2.0993087e-08
1.0779943e-07
0.00010489986
2.7443379e-07
6.5049155e-06
9.8802772e-05
5.0716636e-07
6.6362236e-06
9.329591e-05
6.5854974e-07
6.1922972e-06
8.8116302e-05
7.2902543e-07
5.9257148e-06
8.3248198e-05