/*--------------------------------*- C++ -*----------------------------------*\
  =========                 |
  \\      /  F ield         | OpenFOAM: The Open Source CFD Toolbox
   \\    /   O peration     | Website:  https://openfoam.org
    \\  /    A nd           | Version:  7
     \\/     M anipulation  |
\*---------------------------------------------------------------------------*/
FoamFile
{
    version     2.0;
    format      ascii;
    class       volVectorField;
    location    "2150/water";
    object      U;
}
// * * * * * * * * * * * * * * * * * * * * * * * * * * * * * * * * * * * * * //

dimensions      [0 1 -1 0 0 0 0];

internalField   nonuniform List<vector> 
54000
(
(0.0090020934 0.00020305973 0.00020444027)
(0.0083186447 0.00023622738 0.00023904411)
(0.0073695241 0.00021363852 0.00021763527)
(0.0063566114 0.00018488016 0.00018965819)
(0.0054486673 0.00015530835 0.00016048633)
(0.0046741594 0.00012529952 0.00013052937)
(0.0040193038 9.7052611e-05 0.00010203017)
(0.0034740067 7.2578999e-05 7.7073287e-05)
(0.0030302461 5.2876127e-05 5.6738329e-05)
(0.0026757323 3.806815e-05 4.1216513e-05)
(0.0023947254 2.7637704e-05 3.0037141e-05)
(0.0021713898 2.0689034e-05 2.2336508e-05)
(0.0019919695 1.6236161e-05 1.7152703e-05)
(0.0018455015 1.3416235e-05 1.3643172e-05)
(0.0017237326 1.1582489e-05 1.1179122e-05)
(0.0016206928 1.0304892e-05 9.3455805e-06)
(0.0015321593 9.3257904e-06 7.8957157e-06)
(0.0014551546 8.5052967e-06 6.6953101e-06)
(0.0013875459 7.7746344e-06 5.6760572e-06)
(0.0013277612 7.1034286e-06 4.8034857e-06)
(0.001274601 6.4798492e-06 4.0581554e-06)
(0.0012271179 5.8999456e-06 3.4261569e-06)
(0.0011845424 5.3625309e-06 2.8950716e-06)
(0.001146235 4.8670204e-06 2.4526299e-06)
(0.0011116558 4.412599e-06 2.0869765e-06)
(0.0010803434 3.9980132e-06 1.7867454e-06)
(0.0010519002 3.6214605e-06 1.541612e-06)
(0.0010259819 3.2805932e-06 1.3421851e-06)
(0.001002289 2.9733951e-06 1.1797301e-06)
(0.00098056199 2.6979504e-06 1.0463197e-06)
(0.00096057571 2.4519211e-06 9.3658837e-07)
(0.00094213242 2.2325668e-06 8.4693365e-07)
(0.00092505792 2.0373861e-06 7.7316561e-07)
(0.00090920047 1.8640898e-06 7.1184178e-07)
(0.00089442818 1.7104634e-06 6.6046763e-07)
(0.0008806259 1.5743828e-06 6.1707432e-07)
(0.00086769295 1.4538614e-06 5.8005379e-07)
(0.00085554128 1.3470707e-06 5.4811542e-07)
(0.00084409387 1.2523497e-06 5.2023859e-07)
(0.00083328322 1.1681988e-06 4.9562711e-07)
(0.00082305015 1.093262e-06 4.736522e-07)
(0.00081334267 1.0262301e-06 4.5378259e-07)
(0.00080411486 9.6585825e-07 4.3554457e-07)
(0.00079532615 9.1131088e-07 4.1865094e-07)
(0.0007869407 8.6191669e-07 4.0290674e-07)
(0.00077892675 8.1708379e-07 3.8816782e-07)
(0.00077125603 7.7627733e-07 3.7432079e-07)
(0.0007639033 7.3902579e-07 3.6127642e-07)
(0.00075684597 7.0491487e-07 3.4896363e-07)
(0.00075006373 6.7357495e-07 3.3733179e-07)
(0.00074353822 6.4469347e-07 3.2633783e-07)
(0.00073725294 6.180253e-07 3.1581931e-07)
(0.00073119314 5.9334689e-07 3.0574418e-07)
(0.00072534528 5.7041974e-07 2.962116e-07)
(0.00071969687 5.4902431e-07 2.8716609e-07)
(0.00071423652 5.2901344e-07 2.7854355e-07)
(0.00070895385 5.1027289e-07 2.7031196e-07)
(0.00070383928 4.9268679e-07 2.6244844e-07)
(0.00069888397 4.7614368e-07 2.5493282e-07)
(0.00069407976 4.6054909e-07 2.477431e-07)
(0.00068941911 4.4581971e-07 2.4086405e-07)
(0.00068489502 4.3188476e-07 2.342764e-07)
(0.00068050097 4.1867972e-07 2.2796349e-07)
(0.00067623091 4.0614612e-07 2.2191115e-07)
(0.00067207915 3.9423523e-07 2.1610574e-07)
(0.00066804042 3.8289712e-07 2.1053135e-07)
(0.00066410976 3.7209434e-07 2.0517794e-07)
(0.00066028251 3.6179463e-07 2.0003286e-07)
(0.00065655429 3.5196278e-07 1.9508267e-07)
(0.00065292099 3.4256999e-07 1.9031814e-07)
(0.00064937872 3.335874e-07 1.8572902e-07)
(0.00064592383 3.2498788e-07 1.8130554e-07)
(0.00064255288 3.1675108e-07 1.7703999e-07)
(0.0006392626 3.0885623e-07 1.7292468e-07)
(0.00063604992 3.0128252e-07 1.6895001e-07)
(0.00063291191 2.9401227e-07 1.6511098e-07)
(0.00062984582 2.8703116e-07 1.6139786e-07)
(0.00062684903 2.8032164e-07 1.5780367e-07)
(0.00062391907 2.7387091e-07 1.5432023e-07)
(0.00062105358 2.6766514e-07 1.5094206e-07)
(0.00061825035 2.6169463e-07 1.4766112e-07)
(0.00061550726 2.5594588e-07 1.4446917e-07)
(0.00061282234 2.5040687e-07 1.4135904e-07)
(0.00061019372 2.4506932e-07 1.3832438e-07)
(0.00060761964 2.399199e-07 1.3535555e-07)
(0.00060509845 2.3494607e-07 1.3244851e-07)
(0.00060262862 2.3013505e-07 1.2959787e-07)
(0.00060020873 2.2546952e-07 1.2680384e-07)
(0.00059783744 2.2093224e-07 1.2407586e-07)
(0.00059551348 2.164987e-07 1.2143392e-07)
(0.00059323555 2.1214926e-07 1.1892891e-07)
(0.00059100214 2.0787186e-07 1.1666288e-07)
(0.00058881114 2.0369087e-07 1.1483049e-07)
(0.00058665898 1.9973209e-07 1.138194e-07)
(0.00058453869 1.96384e-07 1.1441097e-07)
(0.00058243501 1.9487208e-07 1.1837368e-07)
(0.00058031396 1.9977544e-07 1.3094325e-07)
(0.0005781161 2.2258472e-07 1.6397578e-07)
(0.00057566369 1.9706857e-07 1.5080591e-07)
(0.000569062 7.8896374e-07 7.532262e-07)
(0.0095316863 0.0003313754 0.00022336697)
(0.0092716504 0.00041105942 0.00027052342)
(0.0087756651 0.00040317187 0.00026060063)
(0.0081527518 0.00038218754 0.00024252081)
(0.0075302151 0.00035309574 0.00022101124)
(0.0069425889 0.00031541062 0.00019648834)
(0.006391209 0.00027309198 0.00017102969)
(0.0058791845 0.00023030694 0.00014652546)
(0.0054120202 0.00019001855 0.00012410998)
(0.0049926512 0.00015423459 0.00010436627)
(0.004620592 0.00012408347 8.7479017e-05)
(0.0042931332 9.9809402e-05 7.3327495e-05)
(0.0040063965 8.0956424e-05 6.1601503e-05)
(0.0037559538 6.6672209e-05 5.1918795e-05)
(0.0035372541 5.5985799e-05 4.3907444e-05)
(0.003345947 4.7992056e-05 3.7246645e-05)
(0.0031780884 4.1941709e-05 3.167753e-05)
(0.003030231 3.7262446e-05 2.699792e-05)
(0.0028994324 3.3540997e-05 2.3051138e-05)
(0.0027832152 3.0490244e-05 1.9714592e-05)
(0.0026795075 2.7915734e-05 1.6890543e-05)
(0.0025865783 2.5687841e-05 1.4499382e-05)
(0.002502978 2.3720893e-05 1.2475015e-05)
(0.0024274871 2.195843e-05 1.0761725e-05)
(0.0023590736 2.0362993e-05 9.3122314e-06)
(0.0022968589 1.8909455e-05 8.0861283e-06)
(0.0022400906 1.7580768e-05 7.0489617e-06)
(0.0021881216 1.6364898e-05 6.1714965e-06)
(0.0021403932 1.5251963e-05 5.4283131e-06)
(0.0020964214 1.4233851e-05 4.7973501e-06)
(0.0020557868 1.330304e-05 4.2604817e-06)
(0.0020181236 1.2451986e-05 3.802704e-06)
(0.0019831119 1.1673908e-05 3.4109598e-06)
(0.0019504718 1.0962756e-05 3.0744197e-06)
(0.0019199589 1.0312854e-05 2.7842598e-06)
(0.0018913593 9.7188336e-06 2.5331805e-06)
(0.0018644851 9.1756441e-06 2.3150738e-06)
(0.0018391716 8.6785721e-06 2.1248314e-06)
(0.0018152735 8.2232422e-06 1.9581841e-06)
(0.0017926629 7.8056204e-06 1.8115671e-06)
(0.0017712268 7.4219987e-06 1.6820115e-06)
(0.001750865 7.0689377e-06 1.5670705e-06)
(0.0017314886 6.7432678e-06 1.4647431e-06)
(0.0017130186 6.4422717e-06 1.3732754e-06)
(0.0016953848 6.1635565e-06 1.2911593e-06)
(0.0016785241 5.9049787e-06 1.2171189e-06)
(0.00166238 5.66461e-06 1.150083e-06)
(0.0016469019 5.4407253e-06 1.0891484e-06)
(0.001632044 5.231778e-06 1.033553e-06)
(0.0016177648 5.0363843e-06 9.8265457e-07)
(0.0016040271 4.8533219e-06 9.3589507e-07)
(0.0015907965 4.6815622e-06 8.9273732e-07)
(0.0015780424 4.5201562e-06 8.5278635e-07)
(0.0015657364 4.3681535e-06 8.1577043e-07)
(0.0015538526 4.2246821e-06 7.8138472e-07)
(0.0015423672 4.0890583e-06 7.4934575e-07)
(0.0015312583 3.9607268e-06 7.1941327e-07)
(0.0015205058 3.8391511e-06 6.9138743e-07)
(0.0015100909 3.7238115e-06 6.6509498e-07)
(0.0014999963 3.6142419e-06 6.4037996e-07)
(0.001490206 3.5100291e-06 6.1710894e-07)
(0.0014807053 3.4107988e-06 5.9515944e-07)
(0.00147148 3.3162136e-06 5.7442734e-07)
(0.0014625175 3.2259595e-06 5.5481487e-07)
(0.0014538055 3.1397561e-06 5.3623543e-07)
(0.0014453328 3.0573344e-06 5.1861264e-07)
(0.0014370889 2.9784692e-06 5.0187807e-07)
(0.0014290637 2.902959e-06 4.8596855e-07)
(0.001421248 2.8306029e-06 4.708225e-07)
(0.001413633 2.7612194e-06 4.5639224e-07)
(0.0014062103 2.6946338e-06 4.42629e-07)
(0.0013989723 2.6306903e-06 4.294873e-07)
(0.0013919116 2.5692445e-06 4.1692857e-07)
(0.0013850211 2.5101627e-06 4.0492037e-07)
(0.0013782945 2.4533182e-06 3.9342476e-07)
(0.0013717253 2.3985939e-06 3.8241143e-07)
(0.0013653078 2.3458846e-06 3.7185099e-07)
(0.0013590364 2.2950859e-06 3.6171759e-07)
(0.0013529058 2.2461044e-06 3.5198251e-07)
(0.001346911 2.1988497e-06 3.4262497e-07)
(0.0013410472 2.1532413e-06 3.3361997e-07)
(0.0013353099 2.1091966e-06 3.249445e-07)
(0.001329695 2.0666368e-06 3.1657824e-07)
(0.0013241983 2.0254874e-06 3.0850046e-07)
(0.001318816 1.9856728e-06 3.0068952e-07)
(0.0013135446 1.9471132e-06 2.9313121e-07)
(0.0013083808 1.9097265e-06 2.8580534e-07)
(0.0013033213 1.873424e-06 2.7870247e-07)
(0.0012983632 1.8381159e-06 2.7181681e-07)
(0.0012935038 1.8037146e-06 2.6515376e-07)
(0.0012887402 1.7701698e-06 2.5874328e-07)
(0.0012840698 1.7375329e-06 2.5265079e-07)
(0.0012794889 1.706122e-06 2.4701451e-07)
(0.0012749925 1.6769098e-06 2.4211386e-07)
(0.001270572 1.6524663e-06 2.3851901e-07)
(0.0012662098 1.6393313e-06 2.3765968e-07)
(0.0012618709 1.6545772e-06 2.4458227e-07)
(0.0012574959 1.7463709e-06 2.7712362e-07)
(0.0012529717 2.0376706e-06 2.6526339e-07)
(0.0012433358 2.9514807e-06 1.3525333e-06)
(0.0095221617 0.00021179965 0.00022180581)
(0.009269783 0.00029872516 0.00026628967)
(0.0088657772 0.00031669844 0.00025526743)
(0.0083755729 0.000317438 0.00023864265)
(0.0078888426 0.00030841043 0.00021987851)
(0.0074276349 0.00028848207 0.00019850458)
(0.006988258 0.00026048391 0.00017617916)
(0.0065698164 0.00022855168 0.00015444521)
(0.0061756011 0.00019596771 0.00013413534)
(0.0058087146 0.00016504408 0.00011567593)
(0.0054706295 0.00013728621 9.9270838e-05)
(0.0051615551 0.00011345265 8.4947831e-05)
(0.0048808654 9.3684507e-05 7.2600738e-05)
(0.0046272998 7.7712987e-05 6.20449e-05)
(0.0043991196 6.5057024e-05 5.3064541e-05)
(0.0041942886 5.5163886e-05 4.544363e-05)
(0.0040106431 4.7493346e-05 3.8982753e-05)
(0.0038460219 4.1561376e-05 3.350638e-05)
(0.0036983537 3.6958194e-05 2.8864075e-05)
(0.0035657105 3.3351174e-05 2.4928487e-05)
(0.0034463343 3.0479502e-05 2.1592135e-05)
(0.003338646 2.8144768e-05 1.8764099e-05)
(0.003241243 2.6200154e-05 1.6367139e-05)
(0.0031528887 2.4539752e-05 1.4335369e-05)
(0.0030724986 2.3088867e-05 1.261249e-05)
(0.0029991252 2.1796113e-05 1.1150134e-05)
(0.0029319421 2.0626905e-05 9.9064824e-06)
(0.0028702292 1.9558162e-05 8.8458153e-06)
(0.0028133589 1.8574037e-05 7.9385385e-06)
(0.0027607855 1.7663622e-05 7.1598235e-06)
(0.0027120345 1.6818833e-05 6.4890366e-06)
(0.0026666927 1.6033067e-05 5.9090199e-06)
(0.0026243991 1.5301095e-05 5.4052715e-06)
(0.0025848382 1.4618819e-05 4.9656529e-06)
(0.0025477347 1.3982713e-05 4.5801159e-06)
(0.0025128472 1.3389542e-05 4.240327e-06)
(0.002479964 1.2836279e-05 3.9393562e-06)
(0.0024488994 1.2320058e-05 3.6714258e-06)
(0.0024194896 1.1838145e-05 3.4317266e-06)
(0.00239159 1.138794e-05 3.216251e-06)
(0.0023650729 1.0966986e-05 3.0216607e-06)
(0.0023398248 1.0572999e-05 2.8451742e-06)
(0.0023157449 1.0203874e-05 2.684475e-06)
(0.0022927433 9.8575792e-06 2.5375951e-06)
(0.0022707398 9.5322156e-06 2.4028645e-06)
(0.002249662 9.2260281e-06 2.2788665e-06)
(0.0022294453 8.937418e-06 2.1644003e-06)
(0.0022100312 8.6649294e-06 2.0584383e-06)
(0.0021913666 8.4072384e-06 1.9601016e-06)
(0.0021734038 8.1631551e-06 1.8686312e-06)
(0.0021560989 7.9316215e-06 1.7833675e-06)
(0.0021394122 7.7117237e-06 1.7037083e-06)
(0.0021233074 7.5026019e-06 1.6291521e-06)
(0.0021077512 7.303379e-06 1.5592834e-06)
(0.0020927129 7.1131867e-06 1.493719e-06)
(0.0020781645 6.9314147e-06 1.4321046e-06)
(0.0020640799 6.7576042e-06 1.3741142e-06)
(0.0020504351 6.5912606e-06 1.3194607e-06)
(0.0020372075 6.4318789e-06 1.2678948e-06)
(0.0020243766 6.2790059e-06 1.2191864e-06)
(0.0020119231 6.1322417e-06 1.173132e-06)
(0.001999829 5.9912205e-06 1.1295439e-06)
(0.0019880776 5.8556131e-06 1.0882501e-06)
(0.0019766531 5.7251057e-06 1.0490965e-06)
(0.001965541 5.5994092e-06 1.011938e-06)
(0.0019547276 5.4782447e-06 9.7664649e-07)
(0.0019441999 5.3613892e-06 9.4310096e-07)
(0.0019339458 5.2486484e-06 9.1118861e-07)
(0.0019239539 5.139819e-06 8.8080724e-07)
(0.0019142135 5.0347032e-06 8.5185975e-07)
(0.0019047144 4.9331188e-06 8.2426019e-07)
(0.001895447 4.8349001e-06 7.979246e-07)
(0.0018864023 4.7398894e-06 7.7278043e-07)
(0.0018775718 4.6479431e-06 7.4875671e-07)
(0.0018689473 4.5589224e-06 7.2578813e-07)
(0.0018605211 4.4726998e-06 7.0381369e-07)
(0.0018522861 4.3891537e-06 6.8277645e-07)
(0.0018442353 4.3081689e-06 6.6262521e-07)
(0.0018363621 4.2296385e-06 6.433078e-07)
(0.0018286604 4.1534581e-06 6.2477689e-07)
(0.0018211241 4.0795277e-06 6.0698952e-07)
(0.0018137478 4.0077529e-06 5.8989985e-07)
(0.0018065261 3.9380364e-06 5.7347328e-07)
(0.001799454 3.8702782e-06 5.5766779e-07)
(0.0017925266 3.8043808e-06 5.4244657e-07)
(0.0017857395 3.7402355e-06 5.2777925e-07)
(0.0017790885 3.6777271e-06 5.1362956e-07)
(0.0017725695 3.6167251e-06 4.9996969e-07)
(0.0017661787 3.5571069e-06 4.8677456e-07)
(0.0017599128 3.4987609e-06 4.7402425e-07)
(0.0017537682 3.4416541e-06 4.617092e-07)
(0.0017477416 3.3859631e-06 4.4983469e-07)
(0.0017418294 3.3323824e-06 4.384415e-07)
(0.0017360272 3.2827909e-06 4.276468e-07)
(0.001730328 3.2417759e-06 4.1776829e-07)
(0.0017247202 3.2200399e-06 4.0999061e-07)
(0.001719183 3.2421558e-06 4.098496e-07)
(0.001713691 3.3643431e-06 4.4114356e-07)
(0.0017081999 3.7072193e-06 4.7353392e-07)
(0.0016974804 4.4611194e-06 1.8634986e-06)
(0.0095012861 0.00013951169 0.00022248511)
(0.0092133349 0.00022408324 0.00026709763)
(0.0088018509 0.00025700941 0.00025529581)
(0.0083306071 0.00026690691 0.0002382081)
(0.0078754299 0.00026502158 0.00021939836)
(0.0074527063 0.0002529565 0.00019823245)
(0.0070564396 0.00023295893 0.00017634609)
(0.0066827538 0.00020836345 0.0001552305)
(0.006331873 0.00018203353 0.00013558338)
(0.0060047052 0.00015603739 0.00011769036)
(0.0057015056 0.00013180401 0.00010166909)
(0.0054220192 0.00011020725 8.7524314e-05)
(0.0051656909 9.1631899e-05 7.5171986e-05)
(0.0049316845 7.6091185e-05 6.4472618e-05)
(0.0047188814 6.3363141e-05 5.5261149e-05)
(0.0045259349 5.310494e-05 4.7366821e-05)
(0.0043513547 4.4932756e-05 4.0624899e-05)
(0.0041935865 3.847136e-05 3.4883032e-05)
(0.0040510752 3.3381246e-05 3.0003996e-05)
(0.0039223115 2.9370509e-05 2.5866182e-05)
(0.0038058643 2.6197263e-05 2.2362868e-05)
(0.0037004012 2.3666731e-05 1.9400962e-05)
(0.0036047 2.1625758e-05 1.689961e-05)
(0.0035176529 1.9956327e-05 1.4788823e-05)
(0.0034382652 1.8569048e-05 1.3008105e-05)
(0.0033656513 1.7397362e-05 1.1504744e-05)
(0.0032990266 1.6392004e-05 1.0233524e-05)
(0.0032376995 1.5516241e-05 9.1565345e-06)
(0.0031810636 1.4743886e-05 8.242112e-06)
(0.0031285885 1.405615e-05 7.4635753e-06)
(0.0030798115 1.3438893e-05 6.7985205e-06)
(0.0030343294 1.2881151e-05 6.2282215e-06)
(0.0029917905 1.2374494e-05 5.7369826e-06)
(0.0029518882 1.1912419e-05 5.3116661e-06)
(0.0029143553 1.148969e-05 4.941354e-06)
(0.0028789586 1.1101928e-05 4.6170013e-06)
(0.0028454946 1.0745378e-05 4.331122e-06)
(0.0028137847 1.0416773e-05 4.0775276e-06)
(0.0027836727 1.0113217e-05 3.8511075e-06)
(0.0027550209 9.8321223e-06 3.6476445e-06)
(0.0027277081 9.5711596e-06 3.4636645e-06)
(0.002701627 9.3282502e-06 3.2963019e-06)
(0.0026766823 9.1015163e-06 3.1431914e-06)
(0.0026527895 8.8892434e-06 3.002383e-06)
(0.0026298729 8.6898918e-06 2.8722557e-06)
(0.0026078647 8.5020887e-06 2.7514712e-06)
(0.002586704 8.3246175e-06 2.6389107e-06)
(0.0025663358 8.156397e-06 2.5336421e-06)
(0.0025467102 7.9964768e-06 2.4348845e-06)
(0.002527782 7.8440269e-06 2.3419784e-06)
(0.0025095101 7.6983371e-06 2.254362e-06)
(0.0024918566 7.5588101e-06 2.1715452e-06)
(0.0024747871 7.4248981e-06 2.093112e-06)
(0.0024582699 7.2960214e-06 2.0187191e-06)
(0.0024422756 7.1714389e-06 1.9480691e-06)
(0.0024267775 7.0509274e-06 1.8808988e-06)
(0.0024117506 6.9343771e-06 1.8169533e-06)
(0.0023971715 6.8214899e-06 1.7560021e-06)
(0.0023830185 6.711957e-06 1.6978517e-06)
(0.0023692714 6.6055388e-06 1.6423283e-06)
(0.0023559116 6.502045e-06 1.589271e-06)
(0.0023429214 6.4013085e-06 1.5385382e-06)
(0.0023302844 6.3031815e-06 1.4899933e-06)
(0.0023179851 6.2075258e-06 1.4435166e-06)
(0.0023060089 6.1142037e-06 1.3989941e-06)
(0.0022943424 6.0230698e-06 1.356326e-06)
(0.0022829727 5.934059e-06 1.3154158e-06)
(0.0022718877 5.8471298e-06 1.2761699e-06)
(0.002261076 5.7622052e-06 1.2385011e-06)
(0.0022505267 5.6791986e-06 1.2023309e-06)
(0.0022402296 5.5980425e-06 1.1675832e-06)
(0.0022301752 5.5186735e-06 1.1341885e-06)
(0.0022203542 5.44103e-06 1.1020815e-06)
(0.002210758 5.3650618e-06 1.0711998e-06)
(0.0022013784 5.2907172e-06 1.0414855e-06)
(0.0021922076 5.2179483e-06 1.0128818e-06)
(0.0021832381 5.1467107e-06 9.8533799e-07)
(0.0021744628 5.0769579e-06 9.5880328e-07)
(0.0021658752 5.0086504e-06 9.3323173e-07)
(0.0021574688 4.9417453e-06 9.0857413e-07)
(0.0021492375 4.8761978e-06 8.8479096e-07)
(0.0021411756 4.8119664e-06 8.6183945e-07)
(0.0021332776 4.7489988e-06 8.396793e-07)
(0.0021255383 4.6872383e-06 8.1827079e-07)
(0.0021179527 4.6266209e-06 7.9757764e-07)
(0.0021105161 4.5670665e-06 7.7756109e-07)
(0.0021032242 4.5084816e-06 7.5818289e-07)
(0.0020960727 4.4507533e-06 7.3941007e-07)
(0.0020890577 4.3937734e-06 7.2120229e-07)
(0.0020821756 4.3374556e-06 7.0352085e-07)
(0.002075423 4.2818117e-06 6.8632233e-07)
(0.0020687967 4.2271321e-06 6.6956139e-07)
(0.0020622937 4.1743536e-06 6.5320301e-07)
(0.002055911 4.1258141e-06 6.3726212e-07)
(0.0020496453 4.0868289e-06 6.219848e-07)
(0.0020434926 4.068777e-06 6.0874758e-07)
(0.0020374483 4.0948779e-06 6.04522e-07)
(0.0020315149 4.2094263e-06 6.3987727e-07)
(0.0020256647 4.4797489e-06 7.1688422e-07)
(0.0020144539 4.9057767e-06 2.2695245e-06)
(0.0094902877 9.6726606e-05 0.00022289229)
(0.00917661 0.00016632333 0.00026788105)
(0.0087449456 0.00019969046 0.00025550648)
(0.0082664657 0.00021101604 0.00023762681)
(0.00781215 0.0002109939 0.0002181603)
(0.0073950862 0.0002028236 0.00019646328)
(0.0070087986 0.00018827265 0.00017418493)
(0.006648835 0.00016968865 0.0001528463)
(0.0063142174 0.00014929331 0.00013312182)
(0.0060045996 0.00012875288 0.0001152379)
(0.0057192201 0.00010923292 9.9256791e-05)
(0.0054570682 9.149007e-05 8.514891e-05)
(0.0052170782 7.5923399e-05 7.2816212e-05)
(0.0049981259 6.264333e-05 6.2119132e-05)
(0.0047989841 5.1561152e-05 5.2900048e-05)
(0.0046183234 4.2472278e-05 4.4997976e-05)
(0.0044547458 3.5118725e-05 3.8256898e-05)
(0.0043068267 2.9230543e-05 3.2530442e-05)
(0.0041731526 2.4550834e-05 2.7684339e-05)
(0.0040523509 2.0849111e-05 2.3597362e-05)
(0.0039431142 1.7926912e-05 2.0161345e-05)
(0.0038442168 1.56186e-05 1.7280681e-05)
(0.0037545253 1.3789366e-05 1.4871531e-05)
(0.0036730042 1.2331759e-05 1.2860862e-05)
(0.0035987172 1.1161539e-05 1.1185211e-05)
(0.0035308247 1.0213367e-05 9.7889744e-06)
(0.0034685786 9.4380831e-06 8.6250716e-06)
(0.0034113173 8.7971289e-06 7.6543155e-06)
(0.0033584589 8.2627209e-06 6.8439391e-06)
(0.0033094933 7.8140819e-06 6.1664554e-06)
(0.0032639753 7.4348231e-06 5.5988457e-06)
(0.0032215172 7.1121285e-06 5.1219273e-06)
(0.0031817817 6.8360954e-06 4.719728e-06)
(0.0031444758 6.599019e-06 4.3789738e-06)
(0.0031093448 6.3947793e-06 4.088681e-06)
(0.0030761678 6.2184051e-06 3.8397971e-06)
(0.0030447526 6.0657966e-06 3.6248784e-06)
(0.003014932 5.9335264e-06 3.4378173e-06)
(0.0029865602 5.8186954e-06 3.2736181e-06)
(0.0029595097 5.7188185e-06 3.1282051e-06)
(0.002933669 5.6317495e-06 2.9982625e-06)
(0.00290894 5.5556278e-06 2.8810985e-06)
(0.0028852364 5.4888246e-06 2.7745334e-06)
(0.0028624815 5.4299133e-06 2.6768101e-06)
(0.0028406075 5.3776423e-06 2.5865057e-06)
(0.0028195538 5.3309235e-06 2.5024718e-06)
(0.0027992664 5.288809e-06 2.4237889e-06)
(0.0027796963 5.250483e-06 2.3497116e-06)
(0.0027607998 5.2152422e-06 2.2796387e-06)
(0.002742537 5.1824975e-06 2.2130841e-06)
(0.0027248717 5.1517667e-06 2.149655e-06)
(0.0027077708 5.1226685e-06 2.089023e-06)
(0.002691204 5.0948939e-06 2.0309192e-06)
(0.0026751435 5.0680861e-06 1.9751367e-06)
(0.0026595636 5.041066e-06 1.9215394e-06)
(0.0026444411 5.0142592e-06 1.869968e-06)
(0.002629754 4.9880186e-06 1.8202513e-06)
(0.0026154815 4.962074e-06 1.7722782e-06)
(0.0026016045 4.9361434e-06 1.7259594e-06)
(0.0025881054 4.910085e-06 1.6812142e-06)
(0.0025749674 4.8838316e-06 1.6379657e-06)
(0.002562175 4.85734e-06 1.5961458e-06)
(0.0025497136 4.8305813e-06 1.5556933e-06)
(0.0025375693 4.8035391e-06 1.5165483e-06)
(0.0025257292 4.7761753e-06 1.4786611e-06)
(0.002514181 4.7483845e-06 1.4419854e-06)
(0.0025029134 4.7202766e-06 1.4064833e-06)
(0.0024919153 4.6919154e-06 1.3721027e-06)
(0.0024811765 4.6632901e-06 1.3387973e-06)
(0.002470687 4.6344014e-06 1.3065283e-06)
(0.0024604377 4.6052669e-06 1.2752604e-06)
(0.0024504197 4.5759091e-06 1.2449531e-06)
(0.0024406247 4.5463468e-06 1.2155766e-06)
(0.0024310448 4.5166014e-06 1.1870932e-06)
(0.0024216723 4.486696e-06 1.1594729e-06)
(0.0024125001 4.4566515e-06 1.1326845e-06)
(0.0024035213 4.4264892e-06 1.1066977e-06)
(0.0023947295 4.3962291e-06 1.0814831e-06)
(0.0023861184 4.3658897e-06 1.0570129e-06)
(0.0023776821 4.3354867e-06 1.033259e-06)
(0.0023694149 4.3050332e-06 1.0101966e-06)
(0.0023613115 4.2745356e-06 9.877959e-07)
(0.0023533667 4.2439927e-06 9.6603046e-07)
(0.0023455757 4.2133952e-06 9.4487431e-07)
(0.0023379338 4.1827206e-06 9.2429959e-07)
(0.0023304365 4.1519271e-06 9.0427628e-07)
(0.0023230798 4.1209531e-06 8.8477071e-07)
(0.0023158597 4.089724e-06 8.6575156e-07)
(0.0023087726 4.0581548e-06 8.4717335e-07)
(0.002301815 4.0261922e-06 8.2898093e-07)
(0.0022949838 3.9938772e-06 8.1110765e-07)
(0.0022882766 3.9615304e-06 7.9346348e-07)
(0.002281691 3.9300781e-06 7.7594412e-07)
(0.0022752261 3.9016922e-06 7.5847815e-07)
(0.002268882 3.8809409e-06 7.412468e-07)
(0.0022626608 3.8766476e-06 7.2572668e-07)
(0.0022565686 3.9043056e-06 7.1958014e-07)
(0.0022506189 3.9866566e-06 7.5579926e-07)
(0.0022447715 4.1391007e-06 8.4931724e-07)
(0.002233564 4.2832256e-06 2.4122108e-06)
(0.0094843561 6.6886586e-05 0.00022303624)
(0.0091549219 0.00011904886 0.00026838771)
(0.0087072816 0.00014772496 0.00025588053)
(0.0082191888 0.00015892952 0.00023765677)
(0.0077602858 0.00016026049 0.00021787143)
(0.0073412804 0.00015505102 0.00019586613)
(0.0069552494 0.00014481701 0.00017327438)
(0.0065978366 0.00013121474 0.00015165024)
(0.0062677954 0.00011592881 0.0001316921)
(0.0059642872 0.00010028521 0.0001136244)
(0.0056860598 8.5214432e-05 9.7497522e-05)
(0.0054316726 7.1330407e-05 8.3272196e-05)
(0.0051997008 5.8984297e-05 7.0844884e-05)
(0.0049887459 4.8311752e-05 6.0073373e-05)
(0.0047973943 3.9291584e-05 5.079889e-05)
(0.0046242055 3.1804355e-05 4.2859902e-05)
(0.0044677269 2.5679086e-05 3.6099807e-05)
(0.0043265179 2.0725786e-05 3.0371291e-05)
(0.0041991724 1.6756344e-05 2.5538702e-05)
(0.004084339 1.3596837e-05 2.1479083e-05)
(0.0039807371 1.1093752e-05 1.8082324e-05)
(0.0038871692 9.1161641e-06 1.525079e-05)
(0.0038025288 7.5553811e-06 1.2898646e-05)
(0.003725804 6.3231351e-06 1.0950986e-05)
(0.0036560786 5.3488199e-06 9.3426787e-06)
(0.0035925304 4.5751823e-06 8.0166143e-06)
(0.0035344253 3.9620997e-06 6.9239483e-06)
(0.0034811131 3.4726277e-06 6.0250727e-06)
(0.0034320221 3.0815209e-06 5.2862634e-06)
(0.0033866501 2.7702767e-06 4.6792111e-06)
(0.0033445586 2.5236728e-06 4.1805217e-06)
(0.0033053662 2.3295853e-06 3.770752e-06)
(0.0032687419 2.1784968e-06 3.4337447e-06)
(0.0032343982 2.0629046e-06 3.1561118e-06)
(0.0032020863 1.9768084e-06 2.9267973e-06)
(0.0031715907 1.9153162e-06 2.7367031e-06)
(0.0031427248 1.8743797e-06 2.5783557e-06)
(0.0031153267 1.8506045e-06 2.4456288e-06)
(0.0030892563 1.8411248e-06 2.333522e-06)
(0.0030643915 1.843498e-06 2.2379663e-06)
(0.003040626 1.8556448e-06 2.1556642e-06)
(0.0030178671 1.87578e-06 2.0839522e-06)
(0.0029960335 1.9023802e-06 2.0206946e-06)
(0.0029750538 1.9341331e-06 1.9641814e-06)
(0.0029548648 1.9699144e-06 1.9130523e-06)
(0.0029354109 2.0087616e-06 1.8662272e-06)
(0.0029166424 2.0498566e-06 1.8228521e-06)
(0.0028985148 2.0925098e-06 1.7822576e-06)
(0.0028809885 2.1361372e-06 1.7439146e-06)
(0.0028640277 2.180271e-06 1.7074105e-06)
(0.0028475999 2.2245522e-06 1.6724142e-06)
(0.0028316758 2.2687607e-06 1.638655e-06)
(0.0028162284 2.3128926e-06 1.6058726e-06)
(0.0028012324 2.3570793e-06 1.5738223e-06)
(0.0027866658 2.3978709e-06 1.543189e-06)
(0.0027725089 2.4362352e-06 1.5136869e-06)
(0.0027587418 2.4734412e-06 1.4848891e-06)
(0.002745346 2.5095356e-06 1.4567012e-06)
(0.002732305 2.5443517e-06 1.4291159e-06)
(0.0027196032 2.5777724e-06 1.4021113e-06)
(0.0027072261 2.6097244e-06 1.3756646e-06)
(0.0026951602 2.6401664e-06 1.3497562e-06)
(0.0026833928 2.6690891e-06 1.3243756e-06)
(0.0026719116 2.6965041e-06 1.2995093e-06)
(0.0026607054 2.7223725e-06 1.2751518e-06)
(0.0026497635 2.7463552e-06 1.2513131e-06)
(0.002639076 2.7689084e-06 1.2279776e-06)
(0.0026286333 2.7901464e-06 1.2051294e-06)
(0.0026184262 2.8099927e-06 1.1827612e-06)
(0.0026084461 2.8284317e-06 1.1608704e-06)
(0.0025986849 2.8454924e-06 1.1394492e-06)
(0.0025891348 2.8612179e-06 1.1184901e-06)
(0.0025797885 2.8756497e-06 1.0979858e-06)
(0.002570639 2.8888308e-06 1.0779282e-06)
(0.0025616795 2.9008067e-06 1.0583093e-06)
(0.0025529038 2.9116203e-06 1.0391192e-06)
(0.0025443058 2.9213145e-06 1.0203485e-06)
(0.0025358796 2.9299307e-06 1.0019897e-06)
(0.0025276198 2.9375058e-06 9.8403122e-07)
(0.002519521 2.9440791e-06 9.664641e-07)
(0.0025115783 2.9496811e-06 9.4927921e-07)
(0.0025037869 2.9543361e-06 9.3246084e-07)
(0.0024961421 2.9580665e-06 9.1599962e-07)
(0.0024886396 2.960881e-06 8.9988009e-07)
(0.0024812752 2.9627733e-06 8.8408543e-07)
(0.002474045 2.9637219e-06 8.68594e-07)
(0.0024669452 2.9636873e-06 8.5338143e-07)
(0.0024599723 2.9626122e-06 8.3841405e-07)
(0.0024531231 2.9604297e-06 8.2364407e-07)
(0.0024463945 2.957097e-06 8.0900345e-07)
(0.0024397839 2.9526515e-06 7.9439911e-07)
(0.0024332894 2.9473513e-06 7.7969469e-07)
(0.0024269099 2.9419135e-06 7.6470919e-07)
(0.0024206457 2.9379222e-06 7.492594e-07)
(0.0024144993 2.9384196e-06 7.3336575e-07)
(0.0024084767 2.9484965e-06 7.1826478e-07)
(0.0024025877 2.9751268e-06 7.1113288e-07)
(0.002396846 3.0234632e-06 7.4331265e-07)
(0.0023911945 3.0808302e-06 8.3046626e-07)
(0.0023803644 3.0574259e-06 2.2999427e-06)
(0.0094810492 4.4090136e-05 0.00022308885)
(0.0091422796 7.9975482e-05 0.00026874495)
(0.0086839084 0.00010160921 0.00025628771)
(0.0081880903 0.00011101591 0.00023793456)
(0.0077246858 0.00011275117 0.00021798622)
(0.0073029895 0.00010953687 0.00019578738)
(0.0069155191 0.00010266029 0.00017296032)
(0.0065579578 9.3267235e-05 0.0001510852)
(0.006229001 8.2539594e-05 0.00013089045)
(0.005927585 7.1446833e-05 0.00011261412)
(0.0056522063 6.067336e-05 9.6309239e-05)
(0.0054012005 5.0670808e-05 8.1936268e-05)
(0.0051729477 4.1706609e-05 6.9390833e-05)
(0.004965887 3.3898114e-05 5.8529098e-05)
(0.0047784814 2.7249954e-05 4.9189878e-05)
(0.0046092054 2.1693074e-05 4.1208773e-05)
(0.0044565535 1.7117438e-05 3.4426143e-05)
(0.0043190553 1.339552e-05 2.8691657e-05)
(0.0041952917 1.0397812e-05 2.3866803e-05)
(0.0040839086 8.0023309e-06 1.9826012e-05)
(0.0039836292 6.0997699e-06 1.6456861e-05)
(0.0038932634 4.5956625e-06 1.3659716e-05)
(0.0038117126 3.4106737e-06 1.1347012e-05)
(0.0037379734 2.4799304e-06 9.4422911e-06)
(0.0036711359 1.7515131e-06 7.8790893e-06)
(0.0036103859 1.1749058e-06 6.6010321e-06)
(0.0035549935 7.223407e-07 5.55612e-06)
(0.0035043108 3.7342458e-07 4.7060693e-06)
(0.0034577717 1.056965e-07 4.0163445e-06)
(0.0034148763 -9.9089803e-08 3.4574144e-06)
(0.0033751872 -2.5333707e-07 3.0054951e-06)
(0.0033383243 -3.6639989e-07 2.6409744e-06)
(0.0033039576 -4.4577962e-07 2.3475728e-06)
(0.0032718009 -4.974835e-07 2.1118266e-06)
(0.0032416065 -5.2634723e-07 1.9226414e-06)
(0.0032131599 -5.3631174e-07 1.7709151e-06)
(0.0031862758 -5.3064208e-07 1.6492032e-06)
(0.0031607936 -5.1206461e-07 1.5514409e-06)
(0.0031365743 -4.8287228e-07 1.4727097e-06)
(0.0031134976 -4.450076e-07 1.4090332e-06)
(0.0030914586 -4.00111e-07 1.3572066e-06)
(0.0030703663 -3.4957914e-07 1.3146574e-06)
(0.0030501409 -2.9459518e-07 1.279332e-06)
(0.0030307129 -2.3616926e-07 1.2495921e-06)
(0.0030120207 -1.7516537e-07 1.2241408e-06)
(0.0029940105 -1.1232176e-07 1.2019522e-06)
(0.0029766343 -4.8268238e-08 1.1822237e-06)
(0.0029598495 1.6449618e-08 1.164322e-06)
(0.0029436181 8.135473e-08 1.1477521e-06)
(0.002927906 1.4602544e-07 1.1321243e-06)
(0.0029126825 2.1005915e-07 1.1171181e-06)
(0.0028979201 2.7304917e-07 1.1024391e-06)
(0.0028835935 3.3454152e-07 1.0876602e-06)
(0.0028696773 3.9432437e-07 1.0722029e-06)
(0.0028561514 4.5704991e-07 1.0590096e-06)
(0.0028429997 5.2060084e-07 1.0472584e-06)
(0.0028302035 5.8225432e-07 1.0356075e-06)
(0.0028177449 6.4163921e-07 1.023801e-06)
(0.0028056084 6.9901978e-07 1.0118743e-06)
(0.0027937799 7.5456163e-07 9.9986832e-07)
(0.0027822461 8.0835087e-07 9.8781068e-07)
(0.0027709946 8.6046912e-07 9.7571884e-07)
(0.0027600137 9.110264e-07 9.6360327e-07)
(0.0027492926 9.6019575e-07 9.5144661e-07)
(0.0027388207 1.008006e-06 9.3926698e-07)
(0.0027285887 1.052851e-06 9.2746607e-07)
(0.0027185878 1.0958664e-06 9.1582849e-07)
(0.0027088089 1.1375005e-06 9.0425257e-07)
(0.0026992438 1.1777666e-06 8.9275901e-07)
(0.0026898847 1.2166569e-06 8.8136609e-07)
(0.0026807244 1.2541693e-06 8.7008015e-07)
(0.0026717559 1.2903141e-06 8.5890707e-07)
(0.0026629726 1.3251076e-06 8.4785242e-07)
(0.0026543682 1.3585728e-06 8.3692236e-07)
(0.0026459367 1.3907405e-06 8.2612212e-07)
(0.0026376723 1.4216354e-06 8.154544e-07)
(0.0026295698 1.4512904e-06 8.0491985e-07)
(0.0026216238 1.4797333e-06 7.9452239e-07)
(0.0026138294 1.5069916e-06 7.8426277e-07)
(0.002606182 1.5330934e-06 7.7414053e-07)
(0.0025986769 1.558064e-06 7.6415268e-07)
(0.0025913099 1.5819209e-06 7.5429534e-07)
(0.0025840769 1.604681e-06 7.4456489e-07)
(0.0025769739 1.6263496e-06 7.3495226e-07)
(0.0025699972 1.6469216e-06 7.2544811e-07)