/*--------------------------------*- C++ -*----------------------------------*\
  =========                 |
  \\      /  F ield         | OpenFOAM: The Open Source CFD Toolbox
   \\    /   O peration     | Website:  https://openfoam.org
    \\  /    A nd           | Version:  7
     \\/     M anipulation  |
\*---------------------------------------------------------------------------*/
FoamFile
{
    version     2.0;
    format      ascii;
    class       surfaceScalarField;
    location    "350/water";
    object      phi;
}
// * * * * * * * * * * * * * * * * * * * * * * * * * * * * * * * * * * * * * //

dimensions      [1 0 -1 0 0 0 0];

internalField   nonuniform List<scalar> 
156660
(
9.905724e-05
6.0010402e-06
6.0528092e-06
8.6847498e-05
6.0555113e-06
6.1542307e-06
7.5687891e-05
5.5111362e-06
5.6484701e-06
6.5441704e-05
5.0404181e-06
5.2057689e-06
5.6267661e-05
4.4956436e-06
4.6783992e-06
4.8318019e-05
3.8797648e-06
4.0698777e-06
4.1624776e-05
3.2524449e-06
3.4407981e-06
3.6124897e-05
2.660462e-06
2.839417e-06
3.1692235e-05
2.1345127e-06
2.2981489e-06
2.8162841e-05
1.6926974e-06
1.8366964e-06
2.5361437e-05
1.3399933e-06
1.4614113e-06
2.3124664e-05
1.0698477e-06
1.1669256e-06
2.1315127e-05
8.6875421e-07
9.4078227e-07
1.9825714e-05
7.2110067e-07
7.6831273e-07
1.8577278e-05
6.1248247e-07
6.3595308e-07
1.7513255e-05
5.3125221e-07
5.3277149e-07
1.6593744e-05
4.6879724e-07
4.5071352e-07
1.5790433e-05
4.191372e-07
3.8417389e-07
1.5082784e-05
3.782907e-07
3.2935848e-07
1.4455417e-05
3.4367127e-07
2.8369562e-07
1.3896409e-05
3.1361408e-07
2.4539331e-07
1.339622e-05
2.870445e-07
2.131445e-07
1.2947015e-05
2.6326031e-07
1.859451e-07
1.2542237e-05
2.4179363e-07
1.629846e-07
1.2176318e-05
2.2232204e-07
1.4359687e-07
1.1844484e-05
2.0461481e-07
1.2721883e-07
1.1542609e-05
1.8849494e-07
1.1337974e-07
1.1267116e-05
1.7381573e-07
1.0167794e-07
1.1014892e-05
1.604627e-07
9.1760847e-08
1.0783252e-05
1.4833969e-07
8.3300605e-08
1.0569851e-05
1.3734902e-07
7.6052156e-08
1.0372614e-05
1.2738864e-07
6.9848347e-08
1.0189731e-05
1.1836808e-07
6.4514856e-08
1.001963e-05
1.1020448e-07
5.9896646e-08
9.8609388e-06
1.0281922e-07
5.5871667e-08
9.7124595e-06
9.6137974e-08
5.2341374e-08
9.5731439e-06
9.0091177e-08
4.9224325e-08
9.4420759e-06
8.4614437e-08
4.6453584e-08
9.3184531e-06
7.9648674e-08
4.3974114e-08
9.2015723e-06
7.5139682e-08
4.1741078e-08
9.0908166e-06
7.1038149e-08
3.971755e-08
8.9856432e-06
6.7301136e-08
3.7872302e-08
8.8855708e-06
6.3894265e-08
3.6178174e-08
8.7901757e-06
6.0780091e-08
3.4614934e-08
8.6990829e-06
5.792618e-08
3.3166651e-08
8.611959e-06
5.530373e-08
3.1820126e-08
8.5285072e-06
5.2887455e-08
3.0564415e-08
8.4484618e-06
5.0655068e-08
2.9390276e-08
8.3715848e-06
4.8587055e-08
2.8290008e-08
8.2976614e-06
4.666619e-08
2.7257225e-08
8.2264975e-06
4.487747e-08
2.6286418e-08
8.1579202e-06
4.3208806e-08
2.5368523e-08
8.0917731e-06
4.1649062e-08
2.4498032e-08
8.0279108e-06
4.0186988e-08
2.3675329e-08
7.9662006e-06
3.8812684e-08
2.2897529e-08
7.9065219e-06
3.7518392e-08
2.2160216e-08
7.8487639e-06
3.6297849e-08
2.1460152e-08
7.7928242e-06
3.5145167e-08
2.0794571e-08
7.7386083e-06
3.4054639e-08
2.0161118e-08
7.6860293e-06
3.3021335e-08
1.9557702e-08
7.6350062e-06
3.2040795e-08
1.898224e-08
7.5854641e-06
3.1109076e-08
1.8433079e-08
7.537333e-06
3.0222633e-08
1.7908495e-08
7.4905478e-06
2.9378255e-08
1.7407004e-08
7.4450476e-06
2.8572989e-08
1.6927191e-08
7.4007756e-06
2.7804232e-08
1.6467781e-08
7.3576783e-06
2.7069609e-08
1.6027644e-08
7.3157057e-06
2.6367069e-08
1.5605633e-08
7.2748103e-06
2.5694649e-08
1.520068e-08
7.2349479e-06
2.5050552e-08
1.4811825e-08
7.1960767e-06
2.4433091e-08
1.4438182e-08
7.1581571e-06
2.3840689e-08
1.4078922e-08
7.1211518e-06
2.3271924e-08
1.3733293e-08
7.0850258e-06
2.2725506e-08
1.3400492e-08
7.0497457e-06
2.2200209e-08
1.3079947e-08
7.0152799e-06
2.1694921e-08
1.2770889e-08
6.9815985e-06
2.1208568e-08
1.2472765e-08
6.9486733e-06
2.0740238e-08
1.2184939e-08
6.9164775e-06
2.0288975e-08
1.1906803e-08
6.8849857e-06
1.9853945e-08
1.1637857e-08
6.8541739e-06
1.9434381e-08
1.1377471e-08
6.8240194e-06
1.9029455e-08
1.1125114e-08
6.7945006e-06
1.8638498e-08
1.0880261e-08
6.7655976e-06
1.8260777e-08
1.0642283e-08
6.7372912e-06
1.789557e-08
1.0410757e-08
6.709564e-06
1.7542092e-08
1.0185093e-08
6.6823995e-06
1.7199626e-08
9.9648612e-09
6.6557825e-06
1.6867276e-08
9.7498139e-09
6.6296983e-06
1.6544166e-08
9.5399741e-09
6.6041331e-06
1.6229265e-08
9.3359948e-09
6.5790714e-06
1.5921971e-08
9.1396652e-09
6.554494e-06
1.5622323e-08
8.9550928e-09
6.5303708e-06
1.5332549e-08
8.7906533e-09
6.5066467e-06
1.5060461e-08
8.6636023e-09
6.4832094e-06
1.4827829e-08
8.6094815e-09
6.4598103e-06
1.4693071e-08
8.7059891e-09
6.4358387e-06
1.4826416e-08
9.1451328e-09
6.4096302e-06
1.5741746e-08
1.046673e-08
6.3782855e-06
1.8026554e-08
1.3318218e-08
3.2300221e-08
2.7923536e-08
0.00010646494
4.1872385e-06
6.4599816e-06
0.0001002019
5.695418e-06
6.6231353e-06
9.3659588e-05
5.7790389e-06
6.2744099e-06
8.7011589e-05
5.6514782e-06
6.0369387e-06
8.0422927e-05
5.366912e-06
5.7173941e-06
7.4094022e-05
4.9022832e-06
5.3063862e-06
6.8167026e-05
4.3278135e-06
4.8516272e-06
6.2722565e-05
3.717891e-06
4.387032e-06
5.7799049e-05
3.1243144e-06
3.9337144e-06
5.3403345e-05
2.5820689e-06
3.5063329e-06
4.9517402e-05
2.1121062e-06
3.1138299e-06
4.6105482e-05
1.7220197e-06
2.7597474e-06
4.3121558e-05
1.4089355e-06
2.4437429e-06
4.0515558e-05
1.1637552e-06
2.163346e-06
3.8237948e-05
9.7485852e-07
1.9152336e-06
3.6242683e-05
8.3055976e-07
1.6959573e-06
3.4488759e-05
7.20437e-07
1.5022849e-06
3.2940716e-05
6.3586298e-07
1.3313172e-06
3.1568463e-05
5.7005008e-07
1.1804931e-06
3.0346733e-05
5.1784897e-07
1.0475522e-06
2.9254398e-05
4.7545954e-07
9.3049033e-07
2.8273782e-05
4.4013957e-07
8.2752023e-07
2.7390054e-05
4.0994893e-07
7.3704009e-07
2.6590699e-05
3.8353956e-07
6.5760857e-07
2.5865102e-05
3.5998888e-07
5.8793072e-07
2.5204197e-05
3.3867632e-07
5.2684261e-07
2.4600205e-05
3.1918359e-07
4.7330348e-07
2.4046429e-05
3.0120189e-07
4.2639015e-07
2.3537073e-05
2.8455205e-07
3.8526716e-07
2.3067119e-05
2.6911098e-07
3.491824e-07
2.2632208e-05
2.5478164e-07
3.1747787e-07
2.2228528e-05
2.4147381e-07
2.8959534e-07
2.1852744e-05
2.2911073e-07
2.6504127e-07
2.1501947e-05
2.1762894e-07
2.4337258e-07
2.1173591e-05
2.0696952e-07
2.2420572e-07
2.0865444e-05
1.9707566e-07
2.0720865e-07
2.0575549e-05
1.8789254e-07
1.9209398e-07
2.0302183e-05
1.7936725e-07
1.7861343e-07
2.0043829e-05
1.7144909e-07
1.6655321e-07
1.979915e-05
1.6408982e-07
1.5572941e-07
1.956696e-05
1.5724382e-07
1.4598404e-07
1.934621e-05
1.5086894e-07
1.3718216e-07
1.9135969e-05
1.4492651e-07
1.2920882e-07
1.8935407e-05
1.3937905e-07
1.2196304e-07
1.8743783e-05
1.341923e-07
1.1535762e-07
1.8560435e-05
1.293351e-07
1.0931723e-07
1.8384766e-05
1.2477909e-07
1.0377716e-07
1.8216241e-05
1.2049852e-07
9.8681281e-08
1.8054377e-05
1.1647011e-07
9.398129e-08
1.7898734e-05
1.1267292e-07
8.9635409e-08
1.7748917e-05
1.0908821e-07
8.5606988e-08
1.7604563e-05
1.0570003e-07
8.1862412e-08
1.7465345e-05
1.0249339e-07
7.8373271e-08
1.7330962e-05
9.9453001e-08
7.5116993e-08
1.7201138e-05
9.65644e-08
7.2072705e-08
1.7075619e-05
9.3816642e-08
6.9221166e-08
1.695417e-05
9.1201076e-08
6.6545123e-08
1.6836577e-05
8.8709102e-08
6.4029539e-08
1.6722638e-05
8.6331952e-08
6.1661021e-08
1.661217e-05
8.4061759e-08
5.9427685e-08
1.6505001e-05
8.1891524e-08
5.7318813e-08
1.640097e-05
7.9814901e-08
5.5324838e-08
1.6299929e-05
7.7826172e-08
5.3437133e-08
1.620174e-05
7.5919886e-08
5.1647887e-08
1.6106272e-05
7.4091048e-08
4.9950088e-08
1.6013404e-05
7.2335003e-08
4.8337376e-08
1.5923022e-05
7.0647711e-08
4.6803816e-08
1.5835019e-05
6.9025727e-08
4.5344247e-08
1.5749294e-05
6.7465533e-08
4.3953691e-08
1.5665753e-05
6.5963766e-08
4.262767e-08
1.5584307e-05
6.4517366e-08
4.1362155e-08
1.5504871e-05
6.3123392e-08
4.0153333e-08
1.5427366e-05
6.1779325e-08
3.8997806e-08
1.5351716e-05
6.0482572e-08
3.789231e-08
1.5277852e-05
5.9230811e-08
3.6833855e-08
1.5205705e-05
5.8021973e-08
3.5819716e-08
1.5135212e-05
5.6854019e-08
3.4847366e-08
1.5066313e-05
5.5724967e-08
3.3914347e-08
1.499895e-05
5.4633103e-08
3.3018425e-08
1.493307e-05
5.3576743e-08
3.2157452e-08
1.4868621e-05
5.2554211e-08
3.132941e-08
1.4805554e-05
5.1563971e-08
3.0532431e-08
1.4743823e-05
5.0604499e-08
2.9764665e-08
1.4683386e-05
4.9674301e-08
2.9024385e-08
1.4624199e-05
4.8771839e-08
2.8309867e-08
1.4566226e-05
4.789548e-08
2.7619557e-08
1.4509431e-05
4.7043484e-08
2.6951982e-08
1.4453778e-05
4.6214112e-08
2.6305791e-08
1.4399237e-05
4.5405396e-08
2.5679904e-08
1.4345777e-05
4.461572e-08
2.5073735e-08
1.4293367e-05
4.3844228e-08
2.4487716e-08
1.4241972e-05
4.3092858e-08
2.3923749e-08
1.4191548e-05
4.2369916e-08
2.3387154e-08
1.4142019e-05
4.1699335e-08
2.288968e-08
1.4093249e-05
4.1141637e-08
2.2456611e-08
1.4044951e-05
4.0844667e-08
2.2146553e-08
1.3996485e-05
4.1169189e-08
2.2123043e-08
1.3946229e-05
4.3012313e-08
2.2985393e-08
1.389015e-05
4.8540271e-08
2.5565806e-08
6.3281526e-08
5.0000865e-08
0.00010603565
2.7876425e-06
6.4750379e-06
0.00010074799
4.4145413e-06
6.5685292e-06
9.5493515e-05
4.8594028e-06
6.1741159e-06
9.0256432e-05
4.930369e-06
5.9581921e-06
8.5101366e-05
4.8311767e-06
5.6908012e-06
8.0102875e-05
4.5561761e-06
5.3445981e-06
7.5322251e-05
4.1469521e-06
4.9614853e-06
7.0803266e-05
3.6678925e-06
4.5689837e-06
6.6576264e-05
3.1701903e-06
4.1811255e-06
6.2660725e-05
2.690011e-06
3.8075976e-06
5.9065443e-05
2.2519319e-06
3.4554566e-06
5.5788936e-05
1.8697304e-06
3.1287958e-06
5.2820978e-05
1.5477473e-06
2.8291458e-06
5.014479e-05
1.2836302e-06
2.556314e-06
4.7739304e-05
1.07123e-06
2.3091141e-06
4.5581183e-05
9.0281506e-07
2.0858661e-06
4.3646423e-05
7.7048779e-07
1.884709e-06
4.1911533e-05
6.6697373e-07
1.7037792e-06
4.0354306e-05
5.8598197e-07
1.541295e-06
3.8954268e-05
5.223022e-07
1.3955849e-06
3.769288e-05
4.7175604e-07
1.265091e-06
3.6553576e-05
4.3107985e-07
1.1483634e-06
3.552169e-05
3.9778205e-07
1.0440533e-06
3.4584322e-05
3.6999883e-07
9.5090831e-07
3.3730181e-05
3.4635982e-07
8.677702e-07
3.2949411e-05
3.2587761e-07
7.9356872e-07
3.2233419e-05
3.0784047e-07
7.2733484e-07
3.1574711e-05
2.9172983e-07
6.68181e-07
3.0966769e-05
2.7719263e-07
6.1530129e-07
3.0403928e-05
2.6398098e-07
5.6797022e-07
2.9881258e-05
2.5190843e-07
5.2554317e-07
2.9394455e-05
2.4082713e-07
4.8745003e-07
2.8939761e-05
2.306216e-07
4.5318329e-07
2.8513895e-05
2.2120154e-07
4.2229387e-07
2.8113985e-05
2.1249194e-07
3.9438672e-07
2.7737518e-05
2.0442796e-07
3.6911491e-07
2.7382285e-05
1.969519e-07
3.4617382e-07
2.7046344e-05
1.9001176e-07
3.252968e-07
2.6727982e-05
1.8355996e-07
3.0625045e-07
2.6425689e-05
1.7755274e-07
2.8883086e-07
2.6138123e-05
1.7195003e-07
2.7285982e-07
2.5864094e-05
1.6671514e-07
2.5818183e-07
2.5602546e-05
1.6181456e-07
2.4466093e-07
2.535253e-05
1.5721709e-07
2.3217765e-07
2.51132e-05
1.5289443e-07
2.2062724e-07
2.4883797e-05
1.4882096e-07
2.0991771e-07
2.4663634e-05
1.4497365e-07
1.9996809e-07
2.4452094e-05
1.4133183e-07
1.9070705e-07
2.4248615e-05
1.3787699e-07
1.8207152e-07
2.405269e-05
1.3459267e-07
1.740057e-07
2.3863854e-05
1.314646e-07
1.6645988e-07
2.3681684e-05
1.2848059e-07
1.5938925e-07
2.3505794e-05
1.2562919e-07
1.5275413e-07
2.3335829e-05
1.2289867e-07
1.4651967e-07
2.3171462e-05
1.2027631e-07
1.4065458e-07
2.3012394e-05
1.1775473e-07
1.3513021e-07
2.2858345e-05
1.1532969e-07
1.2992046e-07
2.2709057e-05
1.1299537e-07
1.2500173e-07
2.2564291e-05
1.1074519e-07
1.203529e-07
2.2423824e-05
1.0857346e-07
1.1595458e-07
2.2287451e-05
1.0647549e-07
1.1178924e-07
2.2154978e-05
1.0444702e-07
1.0784081e-07
2.2026226e-05
1.0248424e-07
1.0409458e-07
2.1901025e-05
1.0058353e-07
1.0053715e-07
2.1779218e-05
9.8741561e-08
9.7156148e-08
2.1660658e-05
9.6954907e-08
9.3940265e-08
2.1545205e-05
9.5221297e-08
9.0879033e-08
2.1432729e-05
9.3538802e-08
8.7962794e-08
2.1323107e-05
9.1905304e-08
8.5182608e-08
2.1216222e-05
9.0318508e-08
8.2530164e-08
2.1111965e-05
8.8776383e-08
7.999788e-08
2.1010233e-05
8.7277111e-08
7.7578656e-08
2.0910927e-05
8.5818947e-08
7.5265881e-08
2.0813956e-05
8.4400305e-08
7.3053429e-08
2.0719232e-05
8.3019696e-08
7.0935684e-08
2.0626671e-05
8.1675633e-08
6.8907207e-08
2.0536195e-05
8.0366812e-08
6.6963137e-08
2.0447729e-05
7.9091933e-08
6.5098751e-08
2.0361203e-05
7.7849812e-08
6.330978e-08
2.0276548e-05
7.6639243e-08
6.1592052e-08
2.0193702e-05
7.5459001e-08
5.9941763e-08
2.0112602e-05
7.4307991e-08
5.8355259e-08
2.0033193e-05
7.3184926e-08
5.6829071e-08
1.9955419e-05
7.2088617e-08
5.5359966e-08
1.9879228e-05
7.101765e-08
5.3944851e-08
1.9804572e-05
6.997045e-08
5.2580695e-08
1.9731406e-05
6.8945254e-08
5.1264821e-08
1.9659685e-05
6.7940113e-08
4.9994382e-08
1.9589371e-05
6.6953039e-08
4.8767054e-08
1.9520423e-05
6.5982362e-08
4.7580549e-08
1.9452807e-05
6.5028015e-08
4.6433103e-08
1.9386482e-05
6.409411e-08
4.532374e-08
1.9321404e-05
6.3194678e-08
4.4253105e-08
1.9257511e-05
6.2366333e-08
4.3225271e-08
1.9194705e-05
6.1695168e-08
4.2253157e-08
1.9132798e-05
6.1374073e-08
4.13774e-08
1.9071394e-05
6.1822422e-08
4.0750657e-08
1.9009424e-05
6.3924752e-08
4.1057604e-08
1.8944661e-05
6.9304702e-08
4.3998853e-08
7.9170954e-08
7.4661565e-08
0.0001054937
1.9169871e-06
6.4880406e-06
0.00010005365
3.2729596e-06
6.5816334e-06
9.4926077e-05
3.8288995e-06
6.1580776e-06
8.9946373e-05
3.9838108e-06
5.9262629e-06
8.5163276e-05
3.9595077e-06
5.6547657e-06
8.0619137e-05
3.7899368e-06
5.3103784e-06
7.6329462e-05
3.5015547e-06
4.9350725e-06
7.230016e-05
3.1412013e-06
4.5559928e-06
6.8534206e-05
2.7514802e-06
4.1846641e-06
6.5032983e-05
2.3633492e-06
3.8278852e-06
6.1795789e-05
1.9984143e-06
3.490711e-06
5.8818843e-05
1.670376e-06
3.176301e-06
5.6094717e-05
1.3858295e-06
2.886043e-06
5.3612488e-05
1.1457945e-06
2.6200649e-06
5.1358373e-05
9.4764122e-07
2.3777043e-06
4.9316593e-05
7.8676786e-07
2.1578272e-06
4.7470246e-05
6.5779546e-07
1.9590391e-06
4.5802069e-05
5.5532543e-07
1.7798252e-06
4.4295042e-05
4.7437115e-07
1.6186378e-06
4.293283e-05
4.1056668e-07
1.473948e-06
4.1700078e-05
3.602324e-07
1.3442759e-06
4.0582591e-05
3.2035743e-07
1.2282094e-06
3.956742e-05
2.8853734e-07
1.1244154e-06
3.8642881e-05
2.6289064e-07
1.0316467e-06
3.7798527e-05
2.4196983e-07
9.4874402e-07
3.7025076e-05
2.2467702e-07
8.7465171e-07
3.6314324e-05
2.10189e-07
8.0840412e-07
3.5659057e-05
1.9788608e-07
7.491104e-07
3.5052961e-05
1.8731584e-07
6.9597283e-07
3.4490519e-05
1.781487e-07
6.4827381e-07
3.3966922e-05
1.7013171e-07
6.0537441e-07
3.3477973e-05
1.6306728e-07
5.6670866e-07
3.3020016e-05
1.5680298e-07
5.317754e-07
3.2589865e-05
1.5122052e-07
5.0013245e-07
3.218474e-05
1.4622561e-07
4.7139138e-07
3.1802215e-05
1.4174072e-07
4.4521233e-07
3.1440168e-05
1.3770091e-07
4.2129808e-07
3.1096739e-05
1.3405093e-07
3.9938923e-07
3.0770297e-05
1.3074294e-07
3.7925953e-07
3.0459402e-05
1.277352e-07
3.6071198e-07
3.0162787e-05
1.2499093e-07
3.4357476e-07
2.9879325e-05
1.2247785e-07
3.2769849e-07
2.960802e-05
1.2016732e-07
3.1295272e-07
2.934798e-05
1.1803377e-07
2.9922352e-07
2.9098408e-05
1.1605461e-07
2.864114e-07
2.885859e-05
1.1420982e-07
2.7442905e-07
2.8627882e-05
1.124819e-07
2.6319999e-07
2.8405701e-05
1.1085558e-07
2.5265682e-07
2.819152e-05
1.0931756e-07
2.427402e-07
2.7984859e-05
1.0785646e-07
2.3339751e-07
2.7785279e-05
1.0646274e-07
2.2458211e-07
2.7592378e-05
1.051287e-07
2.1625211e-07
2.740579e-05
1.0384734e-07
2.0837038e-07
2.7225174e-05
1.0261117e-07
2.0090362e-07
2.705022e-05
1.0140747e-07
1.9382259e-07
2.6880641e-05
1.002338e-07
1.8710041e-07
2.6716166e-05
9.9092354e-08
1.8071226e-07
2.6556546e-05
9.7979989e-08
1.7463556e-07
2.6401548e-05
9.6892513e-08
1.6885013e-07
2.6250957e-05
9.5827104e-08
1.6333744e-07
2.610457e-05
9.4781699e-08
1.5808045e-07
2.5962199e-05
9.3754755e-08
1.5306361e-07
2.5823666e-05
9.2744874e-08
1.4827258e-07
2.5688804e-05
9.175102e-08
1.4369414e-07
2.5557458e-05
9.0771786e-08
1.3931598e-07
2.5429481e-05
8.9805201e-08
1.3512695e-07
2.5304734e-05
8.8851506e-08
1.3111644e-07
2.5183087e-05
8.7911255e-08
1.2727467e-07
2.5064416e-05
8.698392e-08
1.2359242e-07
2.4948604e-05
8.6068884e-08
1.200612e-07
2.4835542e-05
8.5165776e-08
1.1667302e-07
2.4725124e-05
8.4274317e-08
1.1342046e-07
2.4617252e-05
8.339427e-08
1.1029656e-07
2.4511833e-05
8.2525467e-08
1.072948e-07
2.4408775e-05
8.1667741e-08
1.0440899e-07
2.4307997e-05
8.0820964e-08
1.0163342e-07
2.4209416e-05
7.9985009e-08
9.8962659e-08
2.4112956e-05
7.9159747e-08
9.6391553e-08
2.4018546e-05
7.8345036e-08
9.3915288e-08
2.3926115e-05
7.7540704e-08
9.1529299e-08
2.3835598e-05
7.6746572e-08
8.922927e-08
2.3746933e-05
7.5962346e-08
8.7011049e-08
2.366006e-05
7.5187639e-08
8.4870723e-08
2.3574922e-05
7.442197e-08
8.2804545e-08
2.3491466e-05
7.3664615e-08
8.0808868e-08
2.3409641e-05
7.2914634e-08
7.8880348e-08
2.33294e-05
7.2170695e-08
7.7015506e-08
2.3250698e-05
7.1431317e-08
7.5210997e-08
2.3173493e-05
7.0694896e-08
7.346364e-08
2.3097745e-05
6.9960232e-08
7.1770076e-08
2.3023418e-05
6.9227994e-08
7.0127036e-08
2.2950477e-05
6.8503538e-08
6.8531211e-08
2.2878889e-05
6.7802862e-08
6.6979721e-08
2.2808619e-05
6.7165038e-08
6.5471581e-08
2.2739625e-05
6.6675223e-08
6.4013393e-08
2.267185e-05
6.6507048e-08
6.2642296e-08
2.2605149e-05
6.6990719e-08
6.1532385e-08
2.2538888e-05
6.8686019e-08
6.1499907e-08
2.2471121e-05
7.2226981e-08
6.4845085e-08
7.6722861e-08
9.8461295e-08
0.0001051979
1.3340884e-06
6.4961221e-06
9.9496561e-05
2.3731022e-06
6.6011947e-06
9.4262459e-05
2.9019223e-06
6.1610799e-06
8.9251186e-05
3.0856641e-06
5.9094196e-06
8.4493497e-05
3.0947346e-06
5.6224614e-06
8.0033635e-05
2.9846656e-06
5.265134e-06
7.5876907e-05
2.7790155e-06
4.8792667e-06
7.2014635e-05
2.5106844e-06
4.4927895e-06
6.8436293e-05
2.2128729e-06
4.1169489e-06
6.5131387e-05
1.9107259e-06
3.7575292e-06
6.208941e-05
1.6217321e-06
3.4186596e-06
5.9299432e-05
1.3573878e-06
3.1029661e-06
5.6749589e-05
1.1240344e-06
2.8116386e-06
5.4426788e-05
9.2377947e-07
2.5448158e-06
5.2316754e-05
7.5572802e-07
2.3019466e-06
5.0404313e-05
6.1717855e-07
2.0820302e-06
4.8673788e-05
5.0454349e-07
1.8837772e-06
4.7109414e-05
4.1397177e-07
1.7057274e-06
4.5695713e-05
3.4173648e-07
1.5463363e-06
4.4417792e-05
2.8445146e-07
1.4040359e-06
4.3261575e-05
2.3917113e-07
1.2772781e-06
4.2213953e-05
2.0341502e-07
1.1645652e-06
4.1262871e-05
1.751474e-07
1.0644718e-06
4.039737e-05
1.5273233e-07
9.75659e-07
3.9607583e-05
1.3487531e-07
8.9688147e-07
3.8884688e-05
1.205557e-07
8.270164e-07
3.8220848e-05
1.0901094e-07
7.6501856e-07
3.7609155e-05
9.9633845e-08
7.0994487e-07
3.7043542e-05
9.1977458e-08
6.6095087e-07
3.6518702e-05
8.5705804e-08
6.1728289e-07
3.6030009e-05
8.0552379e-08
5.7827307e-07
3.5573433e-05
7.6308292e-08
5.4333412e-07
3.5145475e-05
7.2811244e-08
5.119503e-07
3.4743091e-05
6.9934122e-08
4.8367025e-07
3.4363641e-05
6.757543e-08
4.5810069e-07
3.4004828e-05
6.5652877e-08
4.3489998e-07
3.3664659e-05
6.4098592e-08
4.1377211e-07
3.3341393e-05
6.2855911e-08
3.9446095e-07
3.3033513e-05
6.1877016e-08
3.7674528e-07
3.2739693e-05
6.1121096e-08
3.6043425e-07
3.2458768e-05
6.055305e-08
3.4536326e-07
3.2189712e-05
6.0142669e-08
3.3139058e-07
3.1931622e-05
5.9863639e-08
3.1839376e-07
3.1683696e-05
5.9693135e-08
3.0626736e-07
3.1445219e-05
5.9611203e-08
2.9492012e-07
3.1215555e-05
5.9600622e-08
2.8427318e-07
3.0994132e-05
5.9646554e-08
2.7425808e-07
3.0780436e-05
5.9736173e-08
2.648154e-07
3.0574002e-05
5.9858659e-08
2.558933e-07
3.0374407e-05
6.0004926e-08
2.474466e-07
3.0181267e-05
6.0167626e-08
2.3943548e-07
2.9994229e-05
6.0341238e-08
2.3182486e-07
2.9812971e-05
6.0521799e-08
2.2458373e-07
2.9637193e-05
6.0704453e-08
2.1768457e-07
2.9466629e-05
6.0867282e-08
2.111046e-07
2.9301024e-05
6.1016969e-08
2.048218e-07
2.914014e-05
6.1160853e-08
1.9881568e-07
2.8983756e-05
6.1294948e-08
1.9306837e-07
2.8831669e-05
6.141546e-08
1.8756389e-07
2.8683688e-05
6.1520981e-08
1.8228764e-07
2.8539633e-05
6.1610579e-08
1.7722637e-07
2.8399336e-05
6.1683766e-08
1.7236786e-07
2.8262639e-05
6.1740501e-08
1.677009e-07
2.8129394e-05
6.1780726e-08
1.6321521e-07
2.7999461e-05
6.1803929e-08
1.5890122e-07
2.7872709e-05
6.1807378e-08
1.5475038e-07
2.7749012e-05
6.1793596e-08
1.5075444e-07
2.7628253e-05
6.1764812e-08
1.4690557e-07
2.7510319e-05
6.1720986e-08
1.4319664e-07
2.7395105e-05
6.1662092e-08
1.3962083e-07
2.728251e-05
6.1588614e-08
1.3617199e-07
2.7172439e-05
6.1501048e-08
1.3284421e-07
2.7064802e-05
6.1399978e-08
1.2963191e-07
2.6959511e-05
6.1285953e-08
1.2652988e-07
2.6856486e-05
6.1159511e-08
1.2353326e-07
2.6755649e-05
6.1021306e-08
1.2063731e-07
2.6656924e-05
6.0871835e-08
1.1783767e-07
2.6560242e-05
6.0711725e-08
1.1513015e-07
2.6465535e-05
6.0541408e-08
1.1251075e-07
2.6372738e-05
6.036132e-08
1.099758e-07
2.6281792e-05
6.0171947e-08
1.0752159e-07
2.6192636e-05
5.9973542e-08
1.0514472e-07
2.6105215e-05
5.9766313e-08
1.0284182e-07
2.6019477e-05
5.9550255e-08
1.0060974e-07
2.5935371e-05
5.9325129e-08
9.8445287e-08
2.585285e-05
5.909049e-08
9.6345375e-08
2.5771868e-05
5.8845519e-08
9.4306935e-08
2.5692384e-05
5.8589054e-08
9.2326758e-08
2.5614357e-05
5.8319825e-08
9.0401458e-08
2.5537753e-05
5.8037102e-08
8.8527348e-08
2.5462539e-05
5.774165e-08
8.6700218e-08
2.5388689e-05
5.7438394e-08
8.4915176e-08
2.5316184e-05
5.7141413e-08
8.3166637e-08
2.5245017e-05
5.6882555e-08
8.1449619e-08
2.51752e-05
5.6726043e-08
7.9765833e-08
2.510677e-05
5.6787897e-08
7.8149173e-08
2.5039729e-05
5.7251605e-08
7.6780991e-08
2.4973573e-05
5.8330931e-08
7.6510223e-08
2.4906079e-05
5.9989481e-08
7.9732155e-08
6.0715016e-08
1.1287822e-07
0.00010503672
9.078937e-07
6.5005614e-06
9.9140653e-05
1.6524914e-06
6.6166801e-06
9.3788329e-05
2.0825242e-06
6.1717217e-06
8.8708526e-05
2.2549373e-06
5.91053e-06
8.3909682e-05
2.278404e-06
5.6151748e-06
7.9437109e-05
2.2074821e-06
5.2497564e-06
7.5296201e-05
2.0645348e-06
4.8553893e-06
7.1474034e-05
1.8722543e-06
4.4605969e-06
6.7955013e-05
1.6547667e-06
4.0771269e-06
6.4723621e-05
1.4313505e-06
3.7107669e-06
6.1764423e-05
1.2154297e-06
3.3655007e-06
5.9062056e-05
1.015864e-06
3.0438911e-06
5.6601108e-05
8.3782745e-07
2.7471548e-06
5.4365944e-05
6.8344647e-07
2.475497e-06
5.2340648e-05
5.5258526e-07
2.2284383e-06
5.0509125e-05
4.4366548e-07
2.0050361e-06
4.8855299e-05
3.5433456e-07
1.8040351e-06
4.7363353e-05
2.8193589e-07
1.6239821e-06
4.6017963e-05
2.2381345e-07
1.4633127e-06
4.4804502e-05
1.7749383e-07
1.3204181e-06
4.3709199e-05
1.407809e-07
1.1936935e-06
4.2719248e-05
1.1179155e-07
1.081575e-06
4.1822875e-05
8.895454e-08
9.8256583e-07
4.1009364e-05
7.098799e-08
8.9525471e-07
4.0269054e-05
5.6861825e-08
8.183238e-07
3.9593306e-05
4.5719117e-08
7.5058475e-07
3.8974405e-05
3.6977871e-08
6.9093437e-07
3.8405585e-05
3.0067362e-08
6.3838631e-07
3.7880869e-05
2.4650828e-08
5.9204242e-07
3.7395029e-05
2.0439991e-08
5.5110608e-07
3.6943514e-05
1.7190283e-08
5.1487718e-07
3.6522366e-05
1.4716746e-08
4.8273955e-07
3.6128148e-05
1.287478e-08
4.5415387e-07
3.5757883e-05
1.1549909e-08
4.2864944e-07
3.5408991e-05
1.0650745e-08
4.0581706e-07
3.5079238e-05
1.0103626e-08
3.8530228e-07
3.4766689e-05
9.8482747e-09
3.6679879e-07
3.4469668e-05
9.8351148e-09
3.5004233e-07
3.4186716e-05
1.0022911e-08
3.3480554e-07
3.3916567e-05
1.0377024e-08
3.2089286e-07
3.3658116e-05
1.0868077e-08
3.0813658e-07
3.3410395e-05
1.1470985e-08
2.9639284e-07
3.3172556e-05
1.2164251e-08
2.8553826e-07
3.2943853e-05
1.2929307e-08
2.7546718e-07
3.2723625e-05
1.375016e-08
2.6608897e-07
3.2511286e-05
1.4613073e-08
2.5732571e-07
3.2306316e-05
1.5506243e-08
2.4911067e-07
3.2108246e-05
1.6419615e-08
2.413862e-07
3.1916658e-05
1.734466e-08
2.3410271e-07
3.1731171e-05
1.8274309e-08
2.2721712e-07
3.1551444e-05
1.9203174e-08
2.2069218e-07
3.1377162e-05
2.0127722e-08
2.1449507e-07
3.1208038e-05
2.1048649e-08
2.085968e-07
3.10438e-05
2.1972757e-08
2.0297053e-07
3.0884232e-05
2.2827828e-08
1.9760736e-07
3.0729103e-05
2.3662976e-08
1.9248229e-07
3.05782e-05
2.4490023e-08
1.8757382e-07
3.0431331e-05
2.529627e-08
1.8286763e-07
3.0288318e-05
2.6077989e-08
1.7835078e-07
3.0148994e-05
2.6834281e-08
1.7401108e-07
3.0013202e-05
2.7564662e-08
1.6983755e-07
2.9880797e-05
2.8268964e-08
1.6582025e-07
2.975164e-05
2.8947437e-08
1.6195013e-07
2.9625601e-05
2.9600808e-08
1.5821897e-07
2.9502557e-05
3.0228594e-08
1.5461919e-07
2.9382396e-05
3.08236e-08
1.5114467e-07
2.9265007e-05
3.1393104e-08
1.4778876e-07
2.9150287e-05
3.1939571e-08
1.445454e-07
2.9038137e-05
3.2461866e-08
1.4140901e-07
2.8928465e-05
3.2960095e-08
1.383746e-07
2.8821181e-05
3.3434724e-08
1.3543752e-07
2.8716203e-05
3.388639e-08
1.325933e-07
2.8613449e-05
3.4315572e-08
1.2983786e-07
2.8512845e-05
3.4722881e-08
1.2716736e-07
2.8414317e-05
3.5108975e-08
1.2457814e-07
2.8317797e-05
3.5474431e-08
1.220668e-07
2.8223219e-05
3.5819903e-08
1.1963008e-07
2.813052e-05
3.6145927e-08
1.1726489e-07
2.803964e-05
3.6453067e-08
1.1496839e-07
2.7950522e-05
3.6741872e-08
1.1273771e-07
2.7863111e-05
3.7012785e-08
1.1057026e-07
2.7777354e-05
3.7266274e-08
1.0846344e-07
2.7693204e-05
3.7502496e-08
1.0641475e-07
2.761061e-05
3.7721595e-08
1.0442175e-07
2.752953e-05
3.7923575e-08
1.0248202e-07
2.744992e-05
3.8108034e-08
1.0059306e-07
2.7371738e-05
3.8274291e-08
9.875231e-08
2.7294949e-05
3.8421552e-08
9.6956887e-08
2.7219516e-05
3.8548759e-08
9.5203649e-08
2.714541e-05
3.8655147e-08
9.3488627e-08
2.7072603e-05
3.8741182e-08
9.180699e-08
2.7001079e-05
3.8810281e-08
9.0152308e-08
2.6930832e-05
3.887213e-08
8.8516573e-08
2.6861877e-05
3.894739e-08
8.6890538e-08
2.679426e-05
3.907354e-08
8.526918e-08
2.6728065e-05
3.9306965e-08
8.3675936e-08
2.6663337e-05
3.970835e-08
8.227119e-08
2.659956e-05
4.0272001e-08
8.1836213e-08
2.6534295e-05
4.0698051e-08
8.4555755e-08
3.9620873e-08
1.150713e-07
0.00010494757
5.681108e-07
6.5033077e-06
9.8925416e-05
1.0462983e-06
6.6283516e-06
9.3480449e-05
1.3439844e-06
6.1835065e-06
8.8341777e-05
1.4751324e-06
5.9184763e-06
8.3502084e-05
1.4993911e-06
5.6187065e-06
7.9004057e-05
1.4572411e-06
5.2482679e-06
7.4853978e-05
1.3667383e-06
4.8478757e-06
7.1037378e-05
1.2423974e-06
4.4464569e-06
6.7536063e-05
1.0997693e-06
4.0563127e-06
6.4331998e-05
9.519236e-07
3.683491e-06
6.1407318e-05
8.0805755e-07
3.3320524e-06
5.8744339e-05
6.7422203e-07
3.0046209e-06
5.6325632e-05
5.5404398e-07
2.7024907e-06
5.4133973e-05
4.4916748e-07
2.4259383e-06
5.2152298e-05
3.5972401e-07
2.174536e-06
5.0363747e-05
2.8484513e-07
1.9473718e-06
4.875178e-05
2.2310007e-07
1.7432015e-06
4.7300339e-05
1.7281166e-07
1.5605647e-06
4.5994012e-05
1.3226573e-07
1.3978748e-06
4.4818177e-05
9.9840021e-08
1.2534891e-06
4.3759121e-05
7.4075586e-08
1.1257614e-06
4.2804123e-05
5.3707606e-08
1.0130814e-06
4.1941503e-05
3.7671206e-08
9.1390375e-07
4.1160627e-05
2.5096457e-08
8.2676731e-07
4.0451891e-05
1.529418e-08
7.503039e-07
3.980679e-05
7.5281535e-09
6.8329174e-07
3.9217543e-05
1.672724e-09
6.2455202e-07
3.8677513e-05
-3.0331253e-09
5.7313081e-07
3.8180739e-05
-6.6486727e-09
5.2807354e-07
3.7722004e-05
-9.359484e-09
4.8853452e-07
3.7296777e-05
-1.1371761e-08
4.5378928e-07
3.6901112e-05
-1.2818219e-08
4.2319911e-07
3.6531588e-05
-1.3805317e-08
3.9620477e-07
3.6185236e-05
-1.4417512e-08
3.7231876e-07
3.5859491e-05
-1.4721902e-08
3.5111776e-07
3.5552132e-05
-1.4772625e-08
3.3223578e-07
3.5261237e-05
-1.4613912e-08
3.1535726e-07
3.4985143e-05
-1.4282161e-08
3.0021087e-07
3.472241e-05
-1.3807654e-08
2.8656374e-07
3.4471787e-05
-1.3215894e-08
2.7421629e-07
3.4232185e-05
-1.252817e-08
2.6299767e-07
3.4002657e-05
-1.1762807e-08
2.5276175e-07
3.3782373e-05
-1.0935254e-08
2.4338336e-07
3.3570606e-05
-1.005877e-08
2.3475555e-07
3.3366714e-05
-9.1447338e-09
2.2678673e-07
3.3170132e-05
-8.2028469e-09
2.1939834e-07
3.2980356e-05
-7.2412307e-09
2.12523e-07
3.279694e-05
-6.2668925e-09
2.0610282e-07
3.2619482e-05
-5.2855414e-09
2.0008782e-07
3.2447623e-05
-4.3018322e-09
1.9443479e-07
3.228104e-05
-3.319069e-09
1.8910584e-07
3.2119438e-05
-2.3383362e-09
1.8406732e-07
3.1962554e-05
-1.3530619e-09
1.7928647e-07
3.1810075e-05
-2.7633532e-10
1.7472766e-07
3.1661878e-05
5.8582534e-10
1.7043904e-07
3.1517732e-05
1.4356141e-09
1.6637293e-07
3.1377429e-05
2.3038033e-09
1.624896e-07
3.1240792e-05
3.1586258e-09
1.5877485e-07
3.1107656e-05
3.9969964e-09
1.5521718e-07
3.0977867e-05
4.8171798e-09
1.5180547e-07
3.0851284e-05
5.6179541e-09
1.4852965e-07
3.0727774e-05
6.399054e-09
1.4538077e-07
3.060721e-05
7.1609297e-09
1.4235051e-07
3.0489473e-05
7.9059549e-09
1.3943121e-07
3.037445e-05
8.6357406e-09
1.3661578e-07
3.0262049e-05
9.3206454e-09
1.3390398e-07
3.0152163e-05
9.9938108e-09
1.3128567e-07
3.0044697e-05
1.065036e-08
1.2875515e-07
2.9939564e-05
1.128673e-08
1.2630829e-07
2.983668e-05
1.1903193e-08
1.2394086e-07
2.9735965e-05
1.25002e-08
1.2164881e-07
2.9637345e-05
1.307792e-08
1.1942842e-07
2.9540748e-05
1.3636733e-08
1.1727619e-07
2.9446105e-05
1.4177034e-08
1.1518884e-07
2.9353352e-05
1.4699164e-08
1.1316339e-07
2.9262426e-05
1.520353e-08
1.1119701e-07
2.9173268e-05
1.5690502e-08
1.0928707e-07
2.9085822e-05
1.6160379e-08
1.0743106e-07
2.9000035e-05
1.6613593e-08
1.0562665e-07
2.8915855e-05
1.7050399e-08
1.0387154e-07
2.8833233e-05
1.7471095e-08
1.0216362e-07
2.8752123e-05
1.7875974e-08
1.0050082e-07
2.8672479e-05
1.8265102e-08
9.888113e-08
2.8594259e-05
1.8638548e-08
9.7302516e-08
2.8517424e-05
1.8996229e-08
9.5762985e-08
2.8441934e-05
1.9337794e-08
9.4260331e-08
2.8367753e-05
1.9662808e-08
9.2792344e-08
2.8294848e-05
1.9970478e-08
9.1356262e-08
2.8223187e-05
2.0260007e-08
8.9948837e-08
2.8152746e-05
2.0530712e-08
8.8565907e-08
2.8083503e-05
2.0782618e-08
8.7201819e-08
2.8015447e-05
2.1017535e-08
8.5848682e-08
2.7948582e-05
2.1240752e-08
8.4495826e-08
2.7882937e-05
2.1462731e-08
8.3129508e-08
2.7818575e-05
2.1699988e-08
8.1736503e-08
2.7755588e-05
2.19693e-08
8.0324363e-08
2.7694014e-05
2.2266172e-08
7.901608e-08
2.7633299e-05
2.250626e-08
7.8480667e-08
2.7571004e-05
2.2393391e-08
8.059946e-08
2.0993095e-08
1.0779947e-07
0.00010489986
2.7443377e-07
6.5049155e-06
9.8802772e-05
5.0716634e-07
6.6362236e-06
9.329591e-05
6.5854975e-07
6.1922972e-06
8.8116302e-05
7.2902545e-07
5.9257148e-06
8.3248198e-05
7.4378813e-07
5.6237064e-06