/*--------------------------------*- C++ -*----------------------------------*\
  =========                 |
  \\      /  F ield         | OpenFOAM: The Open Source CFD Toolbox
   \\    /   O peration     | Website:  https://openfoam.org
    \\  /    A nd           | Version:  7
     \\/     M anipulation  |
\*---------------------------------------------------------------------------*/
FoamFile
{
    version     2.0;
    format      ascii;
    class       volVectorField;
    location    "350/water";
    object      U;
}
// * * * * * * * * * * * * * * * * * * * * * * * * * * * * * * * * * * * * * //

dimensions      [0 1 -1 0 0 0 0];

internalField   nonuniform List<vector> 
54000
(
(0.0090020934 0.00020305973 0.00020444027)
(0.0083186447 0.00023622738 0.00023904411)
(0.0073695241 0.00021363852 0.00021763527)
(0.0063566114 0.00018488016 0.00018965819)
(0.0054486673 0.00015530836 0.00016048633)
(0.0046741594 0.00012529952 0.00013052937)
(0.0040193038 9.7052611e-05 0.00010203017)
(0.0034740067 7.2578999e-05 7.7073287e-05)
(0.0030302461 5.2876126e-05 5.6738329e-05)
(0.0026757323 3.806815e-05 4.1216512e-05)
(0.0023947254 2.7637704e-05 3.0037142e-05)
(0.0021713898 2.0689034e-05 2.2336509e-05)
(0.0019919695 1.6236161e-05 1.7152704e-05)
(0.0018455015 1.3416237e-05 1.3643172e-05)
(0.0017237326 1.1582489e-05 1.1179122e-05)
(0.0016206928 1.0304892e-05 9.3455811e-06)
(0.0015321593 9.3257907e-06 7.8957167e-06)
(0.0014551546 8.5052967e-06 6.6953111e-06)
(0.0013875459 7.7746338e-06 5.6760574e-06)
(0.0013277612 7.1034284e-06 4.8034859e-06)
(0.001274601 6.47985e-06 4.0581556e-06)
(0.0012271179 5.8999459e-06 3.4261569e-06)
(0.0011845424 5.36253e-06 2.8950712e-06)
(0.001146235 4.8670203e-06 2.4526295e-06)
(0.0011116558 4.4125985e-06 2.0869756e-06)
(0.0010803434 3.9980131e-06 1.7867456e-06)
(0.0010519002 3.6214598e-06 1.5416127e-06)
(0.0010259819 3.2805935e-06 1.3421854e-06)
(0.001002289 2.9733949e-06 1.1797313e-06)
(0.00098056199 2.6979497e-06 1.0463202e-06)
(0.00096057572 2.4519203e-06 9.3659001e-07)
(0.00094213242 2.2325668e-06 8.4693457e-07)
(0.00092505792 2.0373867e-06 7.7316681e-07)
(0.00090920047 1.8640898e-06 7.1184296e-07)
(0.00089442818 1.7104628e-06 6.6046772e-07)
(0.0008806259 1.574383e-06 6.1707413e-07)
(0.00086769295 1.4538615e-06 5.8005271e-07)
(0.00085554128 1.3470702e-06 5.4811534e-07)
(0.00084409387 1.25235e-06 5.2023889e-07)
(0.00083328322 1.1681977e-06 4.956279e-07)
(0.00082305015 1.0932614e-06 4.7365293e-07)
(0.00081334267 1.0262296e-06 4.5378285e-07)
(0.00080411487 9.6585932e-07 4.3554528e-07)
(0.00079532615 9.1131054e-07 4.1865054e-07)
(0.0007869407 8.6191723e-07 4.0290704e-07)
(0.00077892675 8.1708317e-07 3.8816816e-07)
(0.00077125603 7.7627714e-07 3.7432112e-07)
(0.0007639033 7.3902616e-07 3.6127586e-07)
(0.00075684598 7.0491494e-07 3.4896365e-07)
(0.00075006373 6.7357565e-07 3.3733191e-07)
(0.00074353822 6.4469399e-07 3.2633683e-07)
(0.00073725294 6.1802639e-07 3.1581824e-07)
(0.00073119314 5.9334819e-07 3.0574355e-07)
(0.00072534528 5.7041941e-07 2.9621037e-07)
(0.00071969687 5.4902495e-07 2.871664e-07)
(0.00071423653 5.2901433e-07 2.785428e-07)
(0.00070895386 5.1027327e-07 2.7031148e-07)
(0.00070383928 4.9268767e-07 2.6244771e-07)
(0.00069888397 4.7614395e-07 2.5493116e-07)
(0.00069407976 4.6054919e-07 2.4774385e-07)
(0.00068941911 4.4582035e-07 2.4086342e-07)
(0.00068489502 4.3188517e-07 2.3427659e-07)
(0.00068050098 4.1867997e-07 2.2796434e-07)
(0.00067623091 4.0614714e-07 2.2191221e-07)
(0.00067207915 3.9423437e-07 2.1610535e-07)
(0.00066804042 3.8289711e-07 2.1053085e-07)
(0.00066410976 3.7209501e-07 2.0517783e-07)
(0.00066028251 3.6179459e-07 2.0003272e-07)
(0.0006565543 3.5196244e-07 1.9508297e-07)
(0.00065292099 3.4256893e-07 1.90318e-07)
(0.00064937872 3.3358619e-07 1.8572847e-07)
(0.00064592384 3.2498813e-07 1.8130537e-07)
(0.00064255289 3.1675179e-07 1.7704073e-07)
(0.00063926261 3.0885644e-07 1.729241e-07)
(0.00063604993 3.0128275e-07 1.6895121e-07)
(0.00063291192 2.940132e-07 1.6511084e-07)
(0.00062984583 2.8703056e-07 1.6139788e-07)
(0.00062684904 2.8032154e-07 1.5780375e-07)
(0.00062391907 2.7387077e-07 1.5432052e-07)
(0.00062105358 2.6766559e-07 1.5094298e-07)
(0.00061825035 2.6169482e-07 1.4766149e-07)
(0.00061550727 2.559451e-07 1.444695e-07)
(0.00061282235 2.504071e-07 1.4136017e-07)
(0.00061019373 2.4506924e-07 1.3832356e-07)
(0.00060761965 2.3991999e-07 1.3535604e-07)
(0.00060509846 2.3494578e-07 1.3244881e-07)
(0.00060262863 2.3013494e-07 1.2959787e-07)
(0.00060020873 2.2546993e-07 1.2680409e-07)
(0.00059783744 2.2093289e-07 1.2407502e-07)
(0.00059551348 2.1649852e-07 1.2143352e-07)
(0.00059323555 2.1214902e-07 1.1892866e-07)
(0.00059100214 2.0787177e-07 1.1666233e-07)
(0.00058881114 2.0369052e-07 1.1482983e-07)
(0.00058665898 1.9973124e-07 1.1382017e-07)
(0.0005845387 1.9638485e-07 1.1440965e-07)
(0.00058243501 1.9487247e-07 1.1837242e-07)
(0.00058031396 1.9977489e-07 1.3094363e-07)
(0.0005781161 2.225847e-07 1.6397565e-07)
(0.00057566369 1.9706894e-07 1.5080598e-07)
(0.00056906201 7.8896429e-07 7.5322548e-07)
(0.0095316863 0.0003313754 0.00022336697)
(0.0092716504 0.00041105943 0.00027052342)
(0.0087756651 0.00040317187 0.00026060063)
(0.0081527518 0.00038218754 0.00024252081)
(0.0075302151 0.00035309574 0.00022101125)
(0.0069425889 0.00031541062 0.00019648834)
(0.006391209 0.00027309198 0.00017102969)
(0.0058791845 0.00023030694 0.00014652546)
(0.0054120202 0.00019001855 0.00012410997)
(0.0049926512 0.00015423459 0.00010436627)
(0.004620592 0.00012408347 8.7479017e-05)
(0.0042931332 9.9809403e-05 7.3327496e-05)
(0.0040063965 8.0956425e-05 6.1601504e-05)
(0.0037559538 6.6672212e-05 5.1918795e-05)
(0.0035372541 5.5985801e-05 4.3907445e-05)
(0.003345947 4.7992057e-05 3.7246646e-05)
(0.0031780884 4.1941711e-05 3.167753e-05)
(0.0030302311 3.7262447e-05 2.699792e-05)
(0.0028994324 3.3540997e-05 2.3051138e-05)
(0.0027832152 3.0490244e-05 1.9714592e-05)
(0.0026795075 2.7915735e-05 1.6890543e-05)
(0.0025865783 2.5687841e-05 1.4499382e-05)
(0.002502978 2.3720892e-05 1.2475016e-05)
(0.0024274871 2.195843e-05 1.0761725e-05)
(0.0023590736 2.0362992e-05 9.3122321e-06)
(0.0022968589 1.8909454e-05 8.0861286e-06)
(0.0022400906 1.7580768e-05 7.0489624e-06)
(0.0021881216 1.6364897e-05 6.1714969e-06)
(0.0021403932 1.5251962e-05 5.428314e-06)
(0.0020964214 1.4233849e-05 4.7973504e-06)
(0.0020557868 1.3303039e-05 4.2604821e-06)
(0.0020181236 1.2451986e-05 3.8027041e-06)
(0.0019831119 1.1673908e-05 3.4109616e-06)
(0.0019504718 1.0962756e-05 3.0744209e-06)
(0.0019199589 1.0312854e-05 2.7842604e-06)
(0.0018913593 9.7188336e-06 2.5331796e-06)
(0.0018644851 9.175645e-06 2.3150739e-06)
(0.0018391716 8.678572e-06 2.1248311e-06)
(0.0018152735 8.2232429e-06 1.9581831e-06)
(0.001792663 7.8056195e-06 1.8115672e-06)
(0.0017712268 7.4219977e-06 1.6820114e-06)
(0.001750865 7.0689372e-06 1.5670697e-06)
(0.0017314886 6.7432689e-06 1.4647425e-06)
(0.0017130186 6.4422722e-06 1.3732746e-06)
(0.0016953848 6.163557e-06 1.2911588e-06)
(0.0016785241 5.9049783e-06 1.2171184e-06)
(0.00166238 5.6646105e-06 1.1500843e-06)
(0.0016469019 5.4407252e-06 1.0891487e-06)
(0.001632044 5.2317769e-06 1.0335523e-06)
(0.0016177649 5.0363846e-06 9.8265377e-07)
(0.0016040271 4.8533223e-06 9.3589382e-07)
(0.0015907965 4.6815627e-06 8.9273729e-07)
(0.0015780424 4.5201577e-06 8.5278647e-07)
(0.0015657364 4.3681541e-06 8.157702e-07)
(0.0015538526 4.2246826e-06 7.8138434e-07)
(0.0015423672 4.0890598e-06 7.4934567e-07)
(0.0015312583 3.9607275e-06 7.1941313e-07)
(0.0015205058 3.8391521e-06 6.9138728e-07)
(0.0015100909 3.7238116e-06 6.6509327e-07)
(0.0014999963 3.6142425e-06 6.4037932e-07)
(0.0014902061 3.5100293e-06 6.1710845e-07)
(0.0014807053 3.4107982e-06 5.9516053e-07)
(0.00147148 3.3162129e-06 5.7442785e-07)
(0.0014625175 3.2259606e-06 5.5481401e-07)
(0.0014538055 3.139755e-06 5.3623447e-07)
(0.0014453328 3.0573354e-06 5.1861306e-07)
(0.0014370889 2.9784704e-06 5.0187688e-07)
(0.0014290637 2.9029588e-06 4.8596745e-07)
(0.001421248 2.8306028e-06 4.7082347e-07)
(0.001413633 2.7612176e-06 4.5639202e-07)
(0.0014062104 2.6946336e-06 4.4262794e-07)
(0.0013989723 2.6306902e-06 4.2948672e-07)
(0.0013919116 2.5692462e-06 4.1693064e-07)
(0.0013850212 2.510164e-06 4.0492156e-07)
(0.0013782945 2.4533178e-06 3.9342511e-07)
(0.0013717253 2.3985945e-06 3.8241088e-07)
(0.0013653078 2.3458843e-06 3.7185158e-07)
(0.0013590364 2.2950852e-06 3.6171773e-07)
(0.0013529058 2.2461037e-06 3.5198441e-07)
(0.001346911 2.1988512e-06 3.4262632e-07)
(0.0013410472 2.1532428e-06 3.3362026e-07)
(0.0013353099 2.1091967e-06 3.2494507e-07)
(0.001329695 2.0666374e-06 3.1657853e-07)
(0.0013241983 2.0254887e-06 3.0850071e-07)
(0.001318816 1.9856745e-06 3.0069028e-07)
(0.0013135446 1.947114e-06 2.9313026e-07)
(0.0013083808 1.909726e-06 2.8580555e-07)
(0.0013033213 1.8734242e-06 2.7870308e-07)
(0.0012983632 1.8381161e-06 2.7181697e-07)
(0.0012935038 1.8037146e-06 2.6515323e-07)
(0.0012887402 1.7701691e-06 2.5874324e-07)
(0.0012840698 1.7375328e-06 2.5265019e-07)
(0.0012794889 1.7061217e-06 2.4701442e-07)
(0.0012749925 1.6769102e-06 2.4211495e-07)
(0.001270572 1.6524683e-06 2.385181e-07)
(0.0012662098 1.6393335e-06 2.3765982e-07)
(0.0012618709 1.654577e-06 2.4458242e-07)
(0.0012574959 1.7463718e-06 2.7712457e-07)
(0.0012529717 2.0376714e-06 2.6526453e-07)
(0.0012433358 2.9514815e-06 1.3525336e-06)
(0.0095221617 0.00021179965 0.00022180581)
(0.009269783 0.00029872516 0.00026628967)
(0.0088657772 0.00031669844 0.00025526743)
(0.0083755729 0.000317438 0.00023864265)
(0.0078888426 0.00030841043 0.00021987851)
(0.0074276349 0.00028848207 0.00019850458)
(0.006988258 0.00026048391 0.00017617916)
(0.0065698164 0.00022855168 0.00015444521)
(0.0061756011 0.00019596771 0.00013413534)
(0.0058087146 0.00016504408 0.00011567593)
(0.0054706295 0.00013728621 9.9270838e-05)
(0.0051615551 0.00011345265 8.4947831e-05)
(0.0048808654 9.3684508e-05 7.2600738e-05)
(0.0046272998 7.7712989e-05 6.2044902e-05)
(0.0043991196 6.5057027e-05 5.3064544e-05)
(0.0041942886 5.5163888e-05 4.544363e-05)
(0.0040106431 4.7493347e-05 3.8982754e-05)
(0.0038460219 4.1561377e-05 3.350638e-05)
(0.0036983537 3.6958194e-05 2.8864074e-05)
(0.0035657105 3.3351174e-05 2.4928487e-05)
(0.0034463343 3.0479502e-05 2.1592135e-05)
(0.003338646 2.8144768e-05 1.8764099e-05)
(0.003241243 2.6200154e-05 1.6367139e-05)
(0.0031528887 2.4539752e-05 1.4335369e-05)
(0.0030724986 2.3088866e-05 1.261249e-05)
(0.0029991252 2.1796113e-05 1.1150134e-05)
(0.0029319421 2.0626905e-05 9.9064814e-06)
(0.0028702292 1.9558162e-05 8.8458141e-06)
(0.0028133589 1.8574036e-05 7.9385379e-06)
(0.0027607855 1.7663621e-05 7.159824e-06)
(0.0027120345 1.6818831e-05 6.4890364e-06)
(0.0026666927 1.6033066e-05 5.9090216e-06)
(0.0026243991 1.5301095e-05 5.4052729e-06)
(0.0025848383 1.461882e-05 4.9656526e-06)
(0.0025477347 1.3982713e-05 4.5801139e-06)
(0.0025128472 1.3389542e-05 4.2403272e-06)
(0.002479964 1.2836281e-05 3.9393556e-06)
(0.0024488994 1.2320059e-05 3.6714259e-06)
(0.0024194896 1.1838145e-05 3.4317265e-06)
(0.00239159 1.138794e-05 3.2162513e-06)
(0.0023650729 1.0966985e-05 3.0216597e-06)
(0.0023398248 1.0572999e-05 2.8451733e-06)
(0.0023157449 1.0203875e-05 2.684475e-06)
(0.0022927433 9.8575805e-06 2.5375944e-06)
(0.0022707398 9.5322158e-06 2.4028629e-06)
(0.002249662 9.2260291e-06 2.2788658e-06)
(0.0022294453 8.937419e-06 2.1643988e-06)
(0.0022100312 8.664929e-06 2.0584375e-06)
(0.0021913666 8.407238e-06 1.9601005e-06)
(0.0021734038 8.1631545e-06 1.8686316e-06)
(0.0021560989 7.931621e-06 1.7833668e-06)
(0.0021394122 7.7117239e-06 1.7037079e-06)
(0.0021233074 7.5026024e-06 1.6291518e-06)
(0.0021077512 7.3033792e-06 1.5592828e-06)
(0.0020927129 7.1131861e-06 1.4937191e-06)
(0.0020781645 6.9314155e-06 1.4321044e-06)
(0.0020640799 6.7576044e-06 1.3741148e-06)
(0.0020504351 6.5912609e-06 1.3194615e-06)
(0.0020372075 6.4318794e-06 1.2678954e-06)
(0.0020243766 6.2790061e-06 1.2191867e-06)
(0.0020119231 6.132241e-06 1.1731321e-06)
(0.001999829 5.9912203e-06 1.1295439e-06)
(0.0019880776 5.8556131e-06 1.0882499e-06)
(0.0019766531 5.7251059e-06 1.0490955e-06)
(0.0019655411 5.5994093e-06 1.0119373e-06)
(0.0019547276 5.4782457e-06 9.7664588e-07)
(0.0019441999 5.3613905e-06 9.4310054e-07)
(0.0019339458 5.2486481e-06 9.111892e-07)
(0.0019239539 5.1398181e-06 8.80808e-07)
(0.0019142135 5.0347018e-06 8.5186e-07)
(0.0019047144 4.9331187e-06 8.242594e-07)
(0.001895447 4.8348992e-06 7.9792511e-07)
(0.0018864023 4.7398904e-06 7.7278082e-07)
(0.0018775718 4.6479438e-06 7.4875627e-07)
(0.0018689473 4.5589226e-06 7.2578901e-07)
(0.0018605211 4.4726992e-06 7.0381407e-07)
(0.0018522861 4.3891532e-06 6.82778e-07)
(0.0018442353 4.3081676e-06 6.6262512e-07)
(0.0018363621 4.2296373e-06 6.4330815e-07)
(0.0018286604 4.1534591e-06 6.2477722e-07)
(0.0018211241 4.0795297e-06 6.0698927e-07)
(0.0018137478 4.0077552e-06 5.8990163e-07)
(0.0018065261 3.9380366e-06 5.734733e-07)
(0.001799454 3.8702799e-06 5.5766714e-07)
(0.0017925266 3.8043832e-06 5.4244741e-07)
(0.0017857396 3.7402378e-06 5.2777775e-07)
(0.0017790885 3.6777263e-06 5.1363005e-07)
(0.0017725695 3.6167261e-06 4.9996943e-07)
(0.0017661787 3.5571073e-06 4.8677533e-07)
(0.0017599128 3.4987612e-06 4.7402554e-07)
(0.0017537682 3.4416528e-06 4.6170998e-07)
(0.0017477416 3.3859636e-06 4.4983549e-07)
(0.0017418294 3.3323825e-06 4.3844341e-07)
(0.0017360272 3.2827923e-06 4.2764797e-07)
(0.0017303281 3.2417779e-06 4.1776905e-07)
(0.0017247202 3.2200418e-06 4.0999077e-07)
(0.001719183 3.2421559e-06 4.0984933e-07)
(0.001713691 3.3643451e-06 4.4114391e-07)
(0.0017081999 3.7072203e-06 4.7353423e-07)
(0.0016974804 4.4611198e-06 1.8634998e-06)
(0.0095012861 0.00013951169 0.00022248511)
(0.0092133349 0.00022408324 0.00026709763)
(0.0088018509 0.00025700941 0.00025529581)
(0.0083306071 0.00026690691 0.0002382081)
(0.0078754299 0.00026502159 0.00021939837)
(0.0074527063 0.0002529565 0.00019823245)
(0.0070564396 0.00023295893 0.00017634609)
(0.0066827538 0.00020836345 0.0001552305)
(0.006331873 0.00018203353 0.00013558338)
(0.0060047052 0.00015603739 0.00011769036)
(0.0057015056 0.00013180401 0.00010166909)
(0.0054220192 0.00011020725 8.7524314e-05)
(0.0051656909 9.1631901e-05 7.5171986e-05)
(0.0049316845 7.6091188e-05 6.4472618e-05)
(0.0047188814 6.3363145e-05 5.526115e-05)
(0.0045259349 5.3104942e-05 4.7366821e-05)
(0.0043513547 4.4932757e-05 4.0624899e-05)
(0.0041935865 3.847136e-05 3.4883032e-05)
(0.0040510752 3.3381245e-05 3.0003995e-05)
(0.0039223115 2.9370508e-05 2.5866182e-05)
(0.0038058643 2.6197263e-05 2.2362867e-05)
(0.0037004012 2.3666731e-05 1.9400963e-05)
(0.0036047 2.1625757e-05 1.689961e-05)
(0.0035176529 1.9956326e-05 1.4788823e-05)
(0.0034382652 1.8569046e-05 1.3008105e-05)
(0.0033656513 1.7397362e-05 1.1504745e-05)
(0.0032990266 1.6392003e-05 1.0233524e-05)
(0.0032376995 1.5516242e-05 9.1565338e-06)
(0.0031810636 1.4743887e-05 8.2421121e-06)
(0.0031285885 1.4056151e-05 7.4635753e-06)
(0.0030798115 1.3438893e-05 6.7985205e-06)
(0.0030343294 1.2881151e-05 6.2282221e-06)
(0.0029917905 1.2374496e-05 5.7369823e-06)
(0.0029518882 1.1912419e-05 5.3116674e-06)
(0.0029143553 1.1489691e-05 4.9413544e-06)
(0.0028789586 1.1101928e-05 4.6170009e-06)
(0.0028454946 1.0745378e-05 4.3311216e-06)
(0.0028137847 1.0416774e-05 4.0775281e-06)
(0.0027836727 1.0113219e-05 3.8511078e-06)
(0.0027550209 9.8321225e-06 3.6476464e-06)
(0.0027277081 9.5711599e-06 3.4636637e-06)
(0.002701627 9.3282495e-06 3.2963005e-06)
(0.0026766823 9.1015159e-06 3.1431918e-06)
(0.0026527895 8.8892424e-06 3.0023824e-06)
(0.0026298729 8.6898916e-06 2.8722568e-06)
(0.0026078648 8.5020889e-06 2.7514707e-06)
(0.002586704 8.3246164e-06 2.6389101e-06)
(0.0025663358 8.1563963e-06 2.5336409e-06)
(0.0025467102 7.9964769e-06 2.4348836e-06)
(0.002527782 7.8440265e-06 2.3419772e-06)
(0.0025095101 7.6983356e-06 2.2543612e-06)
(0.0024918566 7.5588103e-06 2.1715434e-06)
(0.0024747871 7.4248982e-06 2.093113e-06)
(0.0024582699 7.2960208e-06 2.0187204e-06)
(0.0024422756 7.1714378e-06 1.9480696e-06)
(0.0024267775 7.0509269e-06 1.8808982e-06)
(0.0024117506 6.9343769e-06 1.8169531e-06)
(0.0023971715 6.8214896e-06 1.7560015e-06)
(0.0023830185 6.7119564e-06 1.6978517e-06)
(0.0023692714 6.6055388e-06 1.6423288e-06)
(0.0023559116 6.5020452e-06 1.5892722e-06)
(0.0023429214 6.4013098e-06 1.5385378e-06)
(0.0023302844 6.303182e-06 1.4899932e-06)
(0.0023179851 6.2075259e-06 1.4435166e-06)
(0.0023060089 6.1142046e-06 1.3989938e-06)
(0.0022943424 6.0230691e-06 1.356326e-06)
(0.0022829727 5.9340601e-06 1.3154154e-06)
(0.0022718877 5.8471303e-06 1.2761707e-06)
(0.002261076 5.7622037e-06 1.2385021e-06)
(0.0022505267 5.6791976e-06 1.2023314e-06)
(0.0022402296 5.5980414e-06 1.167583e-06)
(0.0022301752 5.518672e-06 1.1341879e-06)
(0.0022203542 5.4410299e-06 1.1020806e-06)
(0.002210758 5.3650617e-06 1.0711998e-06)
(0.0022013784 5.2907175e-06 1.0414846e-06)
(0.0021922076 5.2179479e-06 1.0128816e-06)
(0.0021832381 5.1467091e-06 9.8533819e-07)
(0.0021744628 5.0769568e-06 9.5880341e-07)
(0.0021658752 5.00865e-06 9.3323047e-07)
(0.0021574688 4.9417455e-06 9.0857403e-07)
(0.0021492375 4.8761995e-06 8.8479135e-07)
(0.0021411756 4.8119681e-06 8.6183974e-07)
(0.0021332776 4.748999e-06 8.3967932e-07)
(0.0021255383 4.6872393e-06 8.1827092e-07)
(0.0021179527 4.626622e-06 7.9757552e-07)
(0.0021105161 4.5670682e-06 7.7756013e-07)
(0.0021032242 4.5084814e-06 7.5818447e-07)
(0.0020960727 4.4507546e-06 7.3941046e-07)
(0.0020890577 4.3937757e-06 7.2120341e-07)
(0.0020821756 4.3374554e-06 7.0352099e-07)
(0.002075423 4.2818108e-06 6.8632223e-07)
(0.0020687967 4.2271339e-06 6.6956215e-07)
(0.0020622937 4.1743532e-06 6.5320368e-07)
(0.002055911 4.1258136e-06 6.3726211e-07)
(0.0020496453 4.0868285e-06 6.2198622e-07)
(0.0020434926 4.0687763e-06 6.0874679e-07)
(0.0020374483 4.0948769e-06 6.0452231e-07)
(0.0020315149 4.2094258e-06 6.3987838e-07)
(0.0020256647 4.4797493e-06 7.1688348e-07)
(0.0020144539 4.9057778e-06 2.2695246e-06)
(0.0094902877 9.6726608e-05 0.00022289229)
(0.00917661 0.00016632333 0.00026788105)
(0.0087449456 0.00019969046 0.00025550648)
(0.0082664657 0.00021101604 0.00023762681)
(0.00781215 0.0002109939 0.0002181603)
(0.0073950862 0.0002028236 0.00019646328)
(0.0070087986 0.00018827265 0.00017418493)
(0.006648835 0.00016968865 0.0001528463)
(0.0063142174 0.00014929331 0.00013312182)
(0.0060045996 0.00012875288 0.0001152379)
(0.0057192201 0.00010923292 9.9256791e-05)
(0.0054570682 9.1490072e-05 8.514891e-05)
(0.0052170782 7.5923401e-05 7.2816212e-05)
(0.0049981259 6.2643332e-05 6.2119134e-05)
(0.0047989841 5.1561154e-05 5.2900048e-05)
(0.0046183234 4.2472279e-05 4.4997976e-05)
(0.0044547458 3.5118725e-05 3.8256897e-05)
(0.0043068267 2.9230543e-05 3.2530442e-05)
(0.0041731526 2.4550834e-05 2.7684339e-05)
(0.0040523509 2.0849111e-05 2.3597362e-05)
(0.0039431142 1.7926913e-05 2.0161345e-05)
(0.0038442168 1.5618599e-05 1.7280682e-05)
(0.0037545253 1.3789363e-05 1.487153e-05)
(0.0036730042 1.2331758e-05 1.2860863e-05)
(0.0035987172 1.1161538e-05 1.1185212e-05)
(0.0035308247 1.0213367e-05 9.7889742e-06)
(0.0034685786 9.4380833e-06 8.6250718e-06)
(0.0034113173 8.797129e-06 7.654315e-06)
(0.0033584589 8.2627214e-06 6.8439393e-06)
(0.0033094933 7.8140809e-06 6.1664552e-06)
(0.0032639753 7.4348238e-06 5.5988444e-06)
(0.0032215172 7.1121303e-06 5.1219264e-06)
(0.0031817817 6.8360958e-06 4.7197278e-06)
(0.0031444758 6.5990196e-06 4.3789741e-06)
(0.0031093448 6.3947793e-06 4.088682e-06)
(0.0030761678 6.2184044e-06 3.8397979e-06)
(0.0030447526 6.0657952e-06 3.6248788e-06)
(0.003014932 5.9335266e-06 3.4378177e-06)
(0.0029865602 5.8186965e-06 3.2736183e-06)
(0.0029595097 5.7188203e-06 3.128205e-06)
(0.002933669 5.6317495e-06 2.9982606e-06)
(0.0029089401 5.5556263e-06 2.8810978e-06)
(0.0028852364 5.4888233e-06 2.7745337e-06)
(0.0028624815 5.429912e-06 2.6768104e-06)
(0.0028406075 5.3776421e-06 2.5865052e-06)
(0.0028195538 5.3309227e-06 2.502473e-06)
(0.0027992664 5.2888088e-06 2.4237893e-06)
(0.0027796963 5.2504816e-06 2.349711e-06)
(0.0027607998 5.2152411e-06 2.2796364e-06)
(0.002742537 5.1824968e-06 2.2130836e-06)
(0.0027248717 5.1517643e-06 2.1496545e-06)
(0.0027077708 5.1226675e-06 2.0890226e-06)
(0.0026912041 5.0948946e-06 2.03092e-06)
(0.0026751435 5.0680859e-06 1.975137e-06)
(0.0026595636 5.0410656e-06 1.9215402e-06)
(0.0026444411 5.0142577e-06 1.8699673e-06)
(0.002629754 4.9880177e-06 1.8202515e-06)
(0.0026154815 4.9620725e-06 1.7722787e-06)
(0.0026016045 4.9361407e-06 1.7259607e-06)
(0.0025881054 4.9100865e-06 1.6812146e-06)
(0.0025749674 4.8838334e-06 1.6379663e-06)
(0.002562175 4.8573398e-06 1.5961468e-06)
(0.0025497136 4.8305812e-06 1.5556927e-06)
(0.0025375693 4.8035408e-06 1.5165486e-06)
(0.0025257292 4.7761774e-06 1.4786609e-06)
(0.002514181 4.7483845e-06 1.4419866e-06)
(0.0025029134 4.7202771e-06 1.4064838e-06)
(0.0024919154 4.6919153e-06 1.3721021e-06)
(0.0024811765 4.6632898e-06 1.3387982e-06)
(0.002470687 4.6344005e-06 1.3065284e-06)
(0.0024604377 4.6052668e-06 1.2752594e-06)
(0.0024504198 4.5759082e-06 1.2449537e-06)
(0.0024406247 4.546346e-06 1.2155755e-06)
(0.0024310448 4.5166015e-06 1.187092e-06)
(0.0024216723 4.4866949e-06 1.1594729e-06)
(0.0024125001 4.4566506e-06 1.1326843e-06)
(0.0024035213 4.4264878e-06 1.1066975e-06)
(0.0023947295 4.3962291e-06 1.0814835e-06)
(0.0023861184 4.3658907e-06 1.0570124e-06)
(0.0023776821 4.3354871e-06 1.0332602e-06)
(0.0023694149 4.305034e-06 1.0101964e-06)
(0.0023613115 4.2745361e-06 9.8779604e-07)
(0.0023533667 4.2439933e-06 9.6603059e-07)
(0.0023455757 4.2133962e-06 9.4487498e-07)
(0.0023379338 4.18272e-06 9.2429968e-07)
(0.0023304365 4.1519266e-06 9.0427568e-07)
(0.0023230798 4.1209544e-06 8.8477225e-07)
(0.0023158598 4.0897264e-06 8.6575277e-07)
(0.0023087726 4.0581577e-06 8.4717353e-07)
(0.002301815 4.0261926e-06 8.2898138e-07)
(0.0022949838 3.9938777e-06 8.1110731e-07)
(0.0022882766 3.9615311e-06 7.9346334e-07)
(0.002281691 3.930077e-06 7.75944e-07)
(0.0022752261 3.9016899e-06 7.5847727e-07)
(0.002268882 3.8809392e-06 7.4124725e-07)
(0.0022626608 3.8766463e-06 7.2572598e-07)
(0.0022565686 3.9043039e-06 7.1957986e-07)
(0.0022506189 3.9866542e-06 7.5579942e-07)
(0.0022447715 4.1391003e-06 8.4931707e-07)
(0.002233564 4.2832264e-06 2.4122105e-06)
(0.0094843561 6.6886586e-05 0.00022303624)
(0.0091549219 0.00011904886 0.00026838771)
(0.0087072816 0.00014772497 0.00025588053)
(0.0082191888 0.00015892952 0.00023765677)
(0.0077602858 0.00016026049 0.00021787143)
(0.0073412804 0.00015505102 0.00019586613)
(0.0069552494 0.00014481701 0.00017327438)
(0.0065978366 0.00013121474 0.00015165024)
(0.0062677954 0.00011592881 0.00013169211)
(0.0059642872 0.00010028521 0.0001136244)
(0.0056860598 8.5214432e-05 9.7497522e-05)
(0.0054316726 7.1330408e-05 8.3272196e-05)
(0.0051997008 5.8984299e-05 7.0844884e-05)
(0.0049887459 4.8311754e-05 6.0073373e-05)
(0.0047973943 3.9291583e-05 5.079889e-05)
(0.0046242055 3.1804354e-05 4.2859903e-05)
(0.0044677269 2.5679085e-05 3.6099807e-05)
(0.0043265179 2.0725784e-05 3.0371291e-05)
(0.0041991724 1.6756343e-05 2.5538702e-05)
(0.004084339 1.3596838e-05 2.1479083e-05)
(0.0039807371 1.1093753e-05 1.8082323e-05)
(0.0038871692 9.116163e-06 1.5250791e-05)
(0.0038025288 7.5553795e-06 1.2898647e-05)
(0.003725804 6.3231339e-06 1.0950986e-05)
(0.0036560786 5.3488191e-06 9.3426777e-06)
(0.0035925304 4.5751815e-06 8.0166133e-06)
(0.0035344253 3.9621008e-06 6.9239486e-06)
(0.0034811131 3.4726271e-06 6.0250729e-06)
(0.0034320221 3.0815196e-06 5.2862636e-06)
(0.0033866501 2.7702763e-06 4.6792109e-06)
(0.0033445586 2.5236732e-06 4.1805224e-06)
(0.0033053662 2.3295863e-06 3.7707522e-06)
(0.0032687419 2.1784966e-06 3.4337442e-06)
(0.0032343982 2.0629054e-06 3.1561113e-06)
(0.0032020863 1.9768079e-06 2.926798e-06)
(0.0031715907 1.9153168e-06 2.736704e-06)
(0.0031427248 1.8743801e-06 2.5783557e-06)
(0.0031153267 1.8506051e-06 2.4456287e-06)
(0.0030892563 1.8411241e-06 2.3335231e-06)
(0.0030643915 1.8434982e-06 2.2379666e-06)
(0.003040626 1.8556437e-06 2.1556631e-06)
(0.0030178671 1.8757802e-06 2.0839521e-06)
(0.0029960335 1.9023803e-06 2.0206943e-06)
(0.0029750538 1.9341337e-06 1.9641817e-06)
(0.0029548649 1.9699143e-06 1.9130533e-06)
(0.0029354109 2.0087616e-06 1.8662267e-06)
(0.0029166424 2.0498582e-06 1.8228523e-06)
(0.0028985148 2.0925099e-06 1.7822568e-06)
(0.0028809886 2.1361379e-06 1.7439152e-06)
(0.0028640277 2.1802701e-06 1.70741e-06)
(0.0028476 2.2245507e-06 1.6724152e-06)
(0.0028316758 2.2687598e-06 1.6386551e-06)
(0.0028162284 2.3128931e-06 1.6058715e-06)
(0.0028012324 2.3570786e-06 1.573822e-06)
(0.0027866658 2.3978707e-06 1.5431882e-06)
(0.0027725089 2.4362346e-06 1.5136872e-06)
(0.0027587418 2.4734399e-06 1.4848886e-06)
(0.002745346 2.5095339e-06 1.4567012e-06)
(0.002732305 2.5443503e-06 1.4291166e-06)
(0.0027196032 2.5777727e-06 1.4021118e-06)
(0.0027072261 2.6097242e-06 1.3756642e-06)
(0.0026951602 2.6401652e-06 1.3497564e-06)
(0.0026833928 2.6690888e-06 1.3243748e-06)
(0.0026719116 2.6965063e-06 1.2995096e-06)
(0.0026607054 2.7223753e-06 1.2751526e-06)
(0.0026497635 2.7463562e-06 1.2513138e-06)
(0.002639076 2.7689085e-06 1.2279777e-06)
(0.0026286333 2.7901454e-06 1.2051297e-06)
(0.0026184262 2.8099921e-06 1.1827615e-06)
(0.0026084461 2.8284316e-06 1.1608699e-06)
(0.0025986849 2.8454929e-06 1.1394494e-06)
(0.0025891348 2.8612184e-06 1.1184907e-06)
(0.0025797885 2.8756497e-06 1.0979862e-06)
(0.002570639 2.8888306e-06 1.0779287e-06)
(0.0025616795 2.9008054e-06 1.0583089e-06)
(0.0025529038 2.911619e-06 1.0391186e-06)
(0.0025443058 2.9213133e-06 1.0203486e-06)
(0.0025358796 2.9299305e-06 1.001989e-06)
(0.0025276198 2.9375071e-06 9.8403193e-07)
(0.002519521 2.9440791e-06 9.6646478e-07)
(0.0025115783 2.9496802e-06 9.492786e-07)
(0.0025037869 2.9543379e-06 9.3246179e-07)
(0.0024961421 2.9580686e-06 9.1600029e-07)
(0.0024886396 2.9608813e-06 8.9988035e-07)
(0.0024812752 2.9627732e-06 8.8408513e-07)
(0.002474045 2.9637229e-06 8.6859414e-07)
(0.0024669452 2.9636887e-06 8.5338216e-07)
(0.0024599723 2.9626143e-06 8.3841348e-07)
(0.0024531231 2.9604317e-06 8.236438e-07)
(0.0024463945 2.9570981e-06 8.0900388e-07)
(0.0024397839 2.952653e-06 7.9439994e-07)
(0.0024332895 2.9473509e-06 7.7969359e-07)
(0.0024269099 2.9419123e-06 7.6470925e-07)
(0.0024206457 2.9379205e-06 7.4925992e-07)
(0.0024144993 2.9384192e-06 7.3336467e-07)
(0.0024084767 2.9484956e-06 7.1826452e-07)
(0.0024025877 2.9751253e-06 7.11134e-07)
(0.002396846 3.0234609e-06 7.433142e-07)
(0.0023911946 3.0808307e-06 8.3046729e-07)
(0.0023803644 3.0574267e-06 2.2999436e-06)
(0.0094810492 4.4090135e-05 0.00022308885)
(0.0091422796 7.9975482e-05 0.00026874495)
(0.0086839084 0.00010160921 0.00025628771)
(0.0081880903 0.00011101591 0.00023793456)
(0.0077246858 0.00011275118 0.00021798622)
(0.0073029895 0.00010953687 0.00019578738)
(0.0069155191 0.00010266029 0.00017296032)
(0.0065579578 9.3267236e-05 0.0001510852)
(0.006229001 8.2539594e-05 0.00013089045)
(0.005927585 7.1446832e-05 0.00011261412)
(0.0056522063 6.0673359e-05 9.6309239e-05)
(0.0054012005 5.0670808e-05 8.1936269e-05)
(0.0051729477 4.1706609e-05 6.9390832e-05)
(0.004965887 3.3898116e-05 5.8529097e-05)
(0.0047784814 2.7249954e-05 4.9189879e-05)
(0.0046092054 2.1693073e-05 4.1208773e-05)
(0.0044565535 1.7117438e-05 3.4426143e-05)
(0.0043190553 1.3395518e-05 2.8691659e-05)
(0.0041952917 1.0397812e-05 2.3866805e-05)
(0.0040839086 8.0023316e-06 1.9826012e-05)
(0.0039836292 6.0997698e-06 1.645686e-05)
(0.0038932634 4.5956612e-06 1.3659716e-05)
(0.0038117126 3.4106727e-06 1.1347012e-05)
(0.0037379734 2.4799287e-06 9.4422912e-06)
(0.0036711359 1.7515117e-06 7.8790896e-06)
(0.0036103859 1.174904e-06 6.6010322e-06)
(0.0035549935 7.2234039e-07 5.5561198e-06)
(0.0035043108 3.7342439e-07 4.7060694e-06)
(0.0034577717 1.0569587e-07 4.0163445e-06)
(0.0034148763 -9.9088638e-08 3.4574141e-06)
(0.0033751872 -2.5333471e-07 3.0054958e-06)
(0.0033383243 -3.6639918e-07 2.6409741e-06)
(0.0033039576 -4.4577958e-07 2.3475721e-06)
(0.0032718009 -4.9748436e-07 2.1118267e-06)
(0.0032416065 -5.2634729e-07 1.922642e-06)
(0.0032131599 -5.3631005e-07 1.7709148e-06)
(0.0031862758 -5.3063976e-07 1.649202e-06)
(0.0031607936 -5.1206211e-07 1.5514401e-06)
(0.0031365743 -4.8287114e-07 1.4727097e-06)
(0.0031134976 -4.4500799e-07 1.4090324e-06)
(0.0030914586 -4.0011133e-07 1.3572048e-06)
(0.0030703663 -3.4957964e-07 1.3146571e-06)
(0.0030501409 -2.9459544e-07 1.2793309e-06)
(0.0030307129 -2.3616957e-07 1.249591e-06)
(0.0030120207 -1.7516601e-07 1.2241403e-06)
(0.0029940105 -1.1232239e-07 1.2019536e-06)
(0.0029766343 -4.8267944e-08 1.1822238e-06)
(0.0029598495 1.6449899e-08 1.1643216e-06)
(0.0029436181 8.1356173e-08 1.1477518e-06)
(0.002927906 1.4602373e-07 1.1321243e-06)
(0.0029126825 2.1005804e-07 1.1171176e-06)
(0.0028979201 2.7304841e-07 1.1024385e-06)
(0.0028835935 3.3454093e-07 1.0876605e-06)
(0.0028696773 3.9432322e-07 1.0722028e-06)
(0.0028561514 4.5704898e-07 1.0590084e-06)
(0.0028429997 5.2060152e-07 1.0472572e-06)
(0.0028302035 5.8225329e-07 1.0356081e-06)
(0.0028177449 6.4163765e-07 1.0238007e-06)
(0.0028056084 6.9901964e-07 1.0118744e-06)
(0.0027937799 7.5456051e-07 9.9986834e-07)
(0.0027822461 8.0834883e-07 9.878094e-07)
(0.0027709946 8.6046906e-07 9.7571845e-07)
(0.0027600137 9.1102641e-07 9.6360147e-07)
(0.0027492926 9.6019689e-07 9.5144678e-07)
(0.0027388207 1.008007e-06 9.3926699e-07)
(0.0027285887 1.0528503e-06 9.2746582e-07)
(0.0027185878 1.095866e-06 9.1582953e-07)
(0.0027088089 1.1374987e-06 9.0425425e-07)
(0.0026992438 1.1777661e-06 8.9275961e-07)
(0.0026898847 1.2166576e-06 8.8136533e-07)
(0.0026807244 1.2541716e-06 8.7007889e-07)
(0.0026717559 1.2903163e-06 8.5890621e-07)
(0.0026629726 1.3251088e-06 8.4785312e-07)
(0.0026543682 1.3585741e-06 8.3692325e-07)
(0.0026459367 1.3907399e-06 8.2612188e-07)
(0.0026376723 1.421635e-06 8.1545282e-07)
(0.0026295698 1.4512904e-06 8.0491942e-07)
(0.0026216238 1.479732e-06 7.9452261e-07)
(0.0026138294 1.506991e-06 7.8426372e-07)
(0.002606182 1.533093e-06 7.7414035e-07)
(0.0025986769 1.558062e-06 7.6415188e-07)
(0.0025913099 1.5819222e-06 7.542955e-07)
(0.0025840769 1.6046821e-06 7.4456551e-07)
(0.0025769739 1.6263491e-06 7.3495349e-07)