/*--------------------------------*- C++ -*----------------------------------*\
  =========                 |
  \\      /  F ield         | OpenFOAM: The Open Source CFD Toolbox
   \\    /   O peration     | Website:  https://openfoam.org
    \\  /    A nd           | Version:  7
     \\/     M anipulation  |
\*---------------------------------------------------------------------------*/
FoamFile
{
    version     2.0;
    format      ascii;
    class       surfaceScalarField;
    location    "500/water";
    object      phi;
}
// * * * * * * * * * * * * * * * * * * * * * * * * * * * * * * * * * * * * * //

dimensions      [1 0 -1 0 0 0 0];

internalField   nonuniform List<scalar> 
156660
(
9.9057239e-05
6.0010402e-06
6.0528092e-06
8.6847498e-05
6.0555113e-06
6.1542307e-06
7.5687891e-05
5.5111362e-06
5.6484701e-06
6.5441704e-05
5.0404181e-06
5.2057689e-06
5.6267661e-05
4.4956436e-06
4.6783992e-06
4.8318019e-05
3.8797648e-06
4.0698777e-06
4.1624776e-05
3.2524448e-06
3.4407982e-06
3.6124897e-05
2.660462e-06
2.839417e-06
3.1692235e-05
2.1345127e-06
2.2981489e-06
2.8162841e-05
1.6926975e-06
1.8366964e-06
2.5361437e-05
1.3399933e-06
1.4614113e-06
2.3124664e-05
1.0698477e-06
1.1669256e-06
2.1315127e-05
8.6875419e-07
9.4078225e-07
1.9825714e-05
7.2110062e-07
7.6831271e-07
1.8577278e-05
6.1248245e-07
6.3595307e-07
1.7513255e-05
5.3125219e-07
5.3277148e-07
1.6593744e-05
4.6879727e-07
4.507135e-07
1.5790433e-05
4.1913718e-07
3.8417385e-07
1.5082784e-05
3.782907e-07
3.293585e-07
1.4455417e-05
3.4367129e-07
2.8369562e-07
1.3896409e-05
3.1361408e-07
2.4539332e-07
1.339622e-05
2.8704449e-07
2.1314452e-07
1.2947015e-05
2.6326032e-07
1.8594511e-07
1.2542237e-05
2.4179367e-07
1.629846e-07
1.2176318e-05
2.223221e-07
1.435969e-07
1.1844484e-05
2.046148e-07
1.272188e-07
1.1542609e-05
1.8849497e-07
1.1337971e-07
1.1267116e-05
1.7381571e-07
1.0167795e-07
1.1014892e-05
1.604627e-07
9.1760837e-08
1.0783252e-05
1.4833969e-07
8.3300611e-08
1.0569851e-05
1.3734905e-07
7.6052143e-08
1.0372614e-05
1.2738864e-07
6.9848325e-08
1.0189731e-05
1.1836808e-07
6.4514816e-08
1.001963e-05
1.1020448e-07
5.9896616e-08
9.8609388e-06
1.0281922e-07
5.5871657e-08
9.7124594e-06
9.6137991e-08
5.2341383e-08
9.5731439e-06
9.0091173e-08
4.9224358e-08
9.4420759e-06
8.4614477e-08
4.6453571e-08
9.3184531e-06
7.9648654e-08
4.3974113e-08
9.2015723e-06
7.5139715e-08
4.1741065e-08
9.0908166e-06
7.1038134e-08
3.9717585e-08
8.9856432e-06
6.7301152e-08
3.7872317e-08
8.8855707e-06
6.3894275e-08
3.617814e-08
8.7901757e-06
6.0780134e-08
3.4614936e-08
8.6990829e-06
5.792615e-08
3.3166627e-08
8.611959e-06
5.530369e-08
3.1820115e-08
8.5285072e-06
5.2887424e-08
3.0564412e-08
8.4484618e-06
5.0655048e-08
2.9390295e-08
8.3715848e-06
4.8587017e-08
2.8289999e-08
8.2976614e-06
4.6666178e-08
2.725721e-08
8.2264975e-06
4.4877477e-08
2.6286425e-08
8.1579201e-06
4.320881e-08
2.5368519e-08
8.0917731e-06
4.1649032e-08
2.449805e-08
8.0279108e-06
4.0186985e-08
2.3675381e-08
7.9662005e-06
3.881268e-08
2.2897513e-08
7.9065219e-06
3.7518387e-08
2.2160225e-08
7.8487639e-06
3.6297885e-08
2.1460164e-08
7.7928241e-06
3.5145155e-08
2.0794585e-08
7.7386083e-06
3.4054677e-08
2.0161148e-08
7.6860293e-06
3.3021345e-08
1.9557703e-08
7.6350062e-06
3.2040812e-08
1.8982238e-08
7.5854641e-06
3.1109048e-08
1.8433041e-08
7.537333e-06
3.0222605e-08
1.790846e-08
7.4905478e-06
2.9378233e-08
1.7406984e-08
7.4450476e-06
2.857301e-08
1.6927185e-08
7.4007755e-06
2.7804242e-08
1.6467778e-08
7.3576783e-06
2.7069587e-08
1.6027636e-08
7.3157056e-06
2.6367052e-08
1.5605649e-08
7.2748103e-06
2.5694663e-08
1.5200692e-08
7.2349479e-06
2.5050578e-08
1.481184e-08
7.1960766e-06
2.443309e-08
1.4438193e-08
7.158157e-06
2.3840657e-08
1.4078935e-08
7.1211518e-06
2.3271914e-08
1.3733303e-08
7.0850258e-06
2.2725497e-08
1.3400497e-08
7.0497456e-06
2.2200191e-08
1.3079941e-08
7.0152798e-06
2.1694915e-08
1.2770901e-08
6.9815985e-06
2.1208571e-08
1.2472764e-08
6.9486733e-06
2.0740245e-08
1.2184927e-08
6.9164775e-06
2.0288977e-08
1.19068e-08
6.8849857e-06
1.9853979e-08
1.1637843e-08
6.8541739e-06
1.9434386e-08
1.1377463e-08
6.8240193e-06
1.9029467e-08
1.1125141e-08
6.7945006e-06
1.8638507e-08
1.088024e-08
6.7655975e-06
1.826077e-08
1.0642287e-08
6.7372912e-06
1.7895538e-08
1.041077e-08
6.709564e-06
1.7542075e-08
1.0185096e-08
6.6823995e-06
1.7199618e-08
9.9648743e-09
6.6557824e-06
1.6867269e-08
9.7498026e-09
6.6296983e-06
1.6544121e-08
9.5399838e-09
6.604133e-06
1.6229262e-08
9.3360101e-09
6.5790714e-06
1.5921981e-08
9.1397116e-09
6.5544939e-06
1.5622346e-08
8.9550861e-09
6.5303707e-06
1.5332544e-08
8.7906592e-09
6.5066467e-06
1.5060476e-08
8.6635928e-09
6.4832093e-06
1.4827806e-08
8.6095402e-09
6.4598102e-06
1.469308e-08
8.7060264e-09
6.4358387e-06
1.48264e-08
9.1451321e-09
6.4096302e-06
1.574174e-08
1.0466745e-08
6.3782854e-06
1.8026567e-08
1.3318242e-08
3.2300231e-08
2.7923602e-08
0.00010646494
4.1872385e-06
6.4599816e-06
0.0001002019
5.695418e-06
6.6231353e-06
9.3659588e-05
5.7790389e-06
6.2744098e-06
8.7011589e-05
5.6514782e-06
6.0369387e-06
8.0422927e-05
5.366912e-06
5.7173941e-06
7.4094022e-05
4.9022832e-06
5.3063862e-06
6.8167026e-05
4.3278135e-06
4.8516272e-06
6.2722565e-05
3.717891e-06
4.387032e-06
5.7799049e-05
3.1243144e-06
3.9337145e-06
5.3403345e-05
2.5820689e-06
3.5063328e-06
4.9517402e-05
2.1121062e-06
3.1138299e-06
4.6105482e-05
1.7220197e-06
2.7597474e-06
4.3121558e-05
1.4089354e-06
2.4437429e-06
4.0515558e-05
1.1637552e-06
2.163346e-06
3.8237948e-05
9.748585e-07
1.9152336e-06
3.6242683e-05
8.3055979e-07
1.6959573e-06
3.4488759e-05
7.2043698e-07
1.5022849e-06
3.2940716e-05
6.3586296e-07
1.3313172e-06
3.1568463e-05
5.7005005e-07
1.1804931e-06
3.0346733e-05
5.1784897e-07
1.0475522e-06
2.9254398e-05
4.7545956e-07
9.3049032e-07
2.8273782e-05
4.401396e-07
8.2752023e-07
2.7390054e-05
4.0994892e-07
7.3704012e-07
2.6590699e-05
3.8353953e-07
6.5760856e-07
2.5865102e-05
3.599889e-07
5.8793072e-07
2.5204197e-05
3.3867632e-07
5.2684263e-07
2.4600205e-05
3.1918359e-07
4.7330347e-07
2.4046429e-05
3.0120192e-07
4.2639018e-07
2.3537072e-05
2.8455205e-07
3.8526714e-07
2.3067119e-05
2.6911101e-07
3.4918237e-07
2.2632208e-05
2.5478165e-07
3.1747788e-07
2.2228528e-05
2.4147379e-07
2.8959532e-07
2.1852744e-05
2.2911074e-07
2.6504124e-07
2.1501947e-05
2.1762895e-07
2.4337258e-07
2.1173591e-05
2.0696953e-07
2.2420574e-07
2.0865444e-05
1.970757e-07
2.0720866e-07
2.0575549e-05
1.8789254e-07
1.9209398e-07
2.0302183e-05
1.7936722e-07
1.7861343e-07
2.0043829e-05
1.7144909e-07
1.6655323e-07
1.979915e-05
1.6408985e-07
1.5572943e-07
1.956696e-05
1.5724383e-07
1.4598405e-07
1.934621e-05
1.5086895e-07
1.3718218e-07
1.9135969e-05
1.4492653e-07
1.2920884e-07
1.8935407e-05
1.3937907e-07
1.2196306e-07
1.8743783e-05
1.3419231e-07
1.1535763e-07
1.8560435e-05
1.2933507e-07
1.0931728e-07
1.8384766e-05
1.2477906e-07
1.0377715e-07
1.8216241e-05
1.2049853e-07
9.8681282e-08
1.8054377e-05
1.1647013e-07
9.3981287e-08
1.7898734e-05
1.1267291e-07
8.96354e-08
1.7748917e-05
1.0908823e-07
8.5606996e-08
1.7604563e-05
1.0570004e-07
8.1862408e-08
1.7465345e-05
1.0249339e-07
7.8373291e-08
1.7330962e-05
9.9452992e-08
7.5116967e-08
1.7201138e-05
9.6564396e-08
7.2072708e-08
1.7075619e-05
9.3816632e-08
6.9221143e-08
1.695417e-05
9.120112e-08
6.654511e-08
1.6836577e-05
8.8709129e-08
6.4029532e-08
1.6722638e-05
8.6331963e-08
6.1661038e-08
1.661217e-05
8.4061782e-08
5.9427686e-08
1.6505001e-05
8.1891519e-08
5.731879e-08
1.640097e-05
7.9814941e-08
5.5324845e-08
1.6299929e-05
7.7826144e-08
5.3437132e-08
1.620174e-05
7.5919841e-08
5.1647905e-08
1.6106272e-05
7.4091e-08
4.9950092e-08
1.6013404e-05
7.2335012e-08
4.8337362e-08
1.5923022e-05
7.064773e-08
4.6803862e-08
1.5835019e-05
6.9025721e-08
4.5344267e-08
1.5749294e-05
6.7465538e-08
4.3953711e-08
1.5665753e-05
6.5963783e-08
4.2627715e-08
1.5584307e-05
6.4517342e-08
4.1362199e-08
1.5504871e-05
6.3123422e-08
4.0153344e-08
1.5427366e-05
6.1779315e-08
3.8997788e-08
1.5351716e-05
6.0482541e-08
3.7892276e-08
1.5277852e-05
5.9230834e-08
3.6833865e-08
1.5205705e-05
5.8021992e-08
3.5819721e-08
1.5135212e-05
5.6854011e-08
3.4847368e-08
1.5066313e-05
5.5724998e-08
3.3914341e-08
1.499895e-05
5.4633134e-08
3.3018405e-08
1.493307e-05
5.3576759e-08
3.215743e-08
1.4868621e-05
5.2554158e-08
3.1329416e-08
1.4805554e-05
5.1563944e-08
3.053244e-08
1.4743823e-05
5.0604481e-08
2.9764681e-08
1.4683385e-05
4.9674258e-08
2.9024336e-08
1.4624199e-05
4.8771816e-08
2.8309876e-08
1.4566226e-05
4.7895467e-08
2.7619565e-08
1.4509431e-05
4.7043479e-08
2.6952014e-08
1.4453778e-05
4.6214096e-08
2.6305782e-08
1.4399237e-05
4.5405385e-08
2.5679912e-08
1.4345777e-05
4.4615692e-08
2.5073778e-08
1.4293367e-05
4.3844286e-08
2.4487687e-08
1.4241972e-05
4.3092863e-08
2.3923772e-08
1.4191548e-05
4.2369911e-08
2.3387158e-08
1.4142019e-05
4.169934e-08
2.2889632e-08
1.4093249e-05
4.1141635e-08
2.2456635e-08
1.4044951e-05
4.0844656e-08
2.2146586e-08
1.3996485e-05
4.1169165e-08
2.2123018e-08
1.3946229e-05
4.301228e-08
2.2985396e-08
1.389015e-05
4.8540269e-08
2.5565813e-08
6.3281547e-08
5.0000856e-08
0.00010603565
2.7876425e-06
6.4750379e-06
0.00010074799
4.4145412e-06
6.5685293e-06
9.5493515e-05
4.8594028e-06
6.1741159e-06
9.0256432e-05
4.930369e-06
5.9581921e-06
8.5101366e-05
4.8311767e-06
5.6908012e-06
8.0102875e-05
4.5561761e-06
5.3445981e-06
7.5322251e-05
4.1469521e-06
4.9614853e-06
7.0803266e-05
3.6678926e-06
4.5689837e-06
6.6576264e-05
3.1701903e-06
4.1811255e-06
6.2660725e-05
2.6900109e-06
3.8075976e-06
5.9065443e-05
2.2519318e-06
3.4554566e-06
5.5788936e-05
1.8697304e-06
3.1287958e-06
5.2820978e-05
1.5477473e-06
2.8291458e-06
5.014479e-05
1.2836302e-06
2.556314e-06
4.7739304e-05
1.07123e-06
2.3091141e-06
4.5581183e-05
9.0281504e-07
2.085866e-06
4.3646423e-05
7.7048781e-07
1.884709e-06
4.1911533e-05
6.6697374e-07
1.7037793e-06
4.0354306e-05
5.8598198e-07
1.541295e-06
3.8954268e-05
5.2230224e-07
1.3955849e-06
3.769288e-05
4.7175605e-07
1.265091e-06
3.6553576e-05
4.3107984e-07
1.1483634e-06
3.552169e-05
3.9778205e-07
1.0440533e-06
3.4584322e-05
3.6999883e-07
9.5090829e-07
3.3730181e-05
3.4635985e-07
8.6777019e-07
3.2949411e-05
3.2587761e-07
7.9356872e-07
3.2233419e-05
3.0784049e-07
7.2733484e-07
3.157471e-05
2.9172985e-07
6.6818103e-07
3.0966769e-05
2.7719266e-07
6.1530126e-07
3.0403928e-05
2.6398102e-07
5.679702e-07
2.9881258e-05
2.519085e-07
5.2554318e-07
2.9394455e-05
2.4082714e-07
4.8745001e-07
2.8939761e-05
2.306216e-07
4.5318328e-07
2.8513895e-05
2.2120152e-07
4.2229389e-07
2.8113985e-05
2.1249196e-07
3.9438675e-07
2.7737518e-05
2.0442795e-07
3.691149e-07
2.7382285e-05
1.969519e-07
3.4617385e-07
2.7046344e-05
1.9001175e-07
3.2529681e-07
2.6727982e-05
1.8355994e-07
3.0625043e-07
2.6425689e-05
1.7755273e-07
2.8883084e-07
2.6138123e-05
1.7195004e-07
2.7285985e-07
2.5864094e-05
1.6671513e-07
2.5818187e-07
2.5602546e-05
1.6181452e-07
2.4466091e-07
2.535253e-05
1.5721711e-07
2.3217764e-07
2.51132e-05
1.5289445e-07
2.2062725e-07
2.4883797e-05
1.4882097e-07
2.0991774e-07
2.4663634e-05
1.4497368e-07
1.9996813e-07
2.4452094e-05
1.4133185e-07
1.9070708e-07
2.4248615e-05
1.37877e-07
1.8207152e-07
2.405269e-05
1.3459268e-07
1.7400571e-07
2.3863854e-05
1.3146457e-07
1.6645989e-07
2.3681684e-05
1.2848057e-07
1.5938923e-07
2.3505794e-05
1.2562919e-07
1.5275411e-07
2.3335829e-05
1.228987e-07
1.4651969e-07
2.3171462e-05
1.2027635e-07
1.4065459e-07
2.3012394e-05
1.177547e-07
1.3513021e-07
2.2858345e-05
1.1532967e-07
1.2992041e-07
2.2709057e-05
1.1299538e-07
1.2500174e-07
2.2564291e-05
1.1074521e-07
1.2035289e-07
2.2423824e-05
1.0857345e-07
1.1595457e-07
2.2287451e-05
1.0647548e-07
1.1178921e-07
2.2154978e-05
1.0444699e-07
1.0784081e-07
2.2026226e-05
1.0248419e-07
1.0409459e-07
2.1901025e-05
1.0058351e-07
1.0053714e-07
2.1779218e-05
9.8741581e-08
9.7156151e-08
2.1660658e-05
9.6954927e-08
9.3940252e-08
2.1545205e-05
9.5221301e-08
9.0879035e-08
2.1432729e-05
9.3538814e-08
8.7962791e-08
2.1323107e-05
9.1905309e-08
8.5182602e-08
2.1216222e-05
9.0318506e-08
8.2530193e-08
2.1111965e-05
8.8776416e-08
7.9997891e-08
2.1010233e-05
8.7277122e-08
7.7578645e-08
2.0910927e-05
8.5818979e-08
7.5265879e-08
2.0813956e-05
8.4400311e-08
7.3053433e-08
2.0719232e-05
8.3019666e-08
7.093564e-08
2.0626671e-05
8.1675632e-08
6.8907229e-08
2.0536195e-05
8.0366846e-08
6.6963147e-08
2.0447729e-05
7.9091955e-08
6.5098745e-08
2.0361203e-05
7.7849837e-08
6.3309765e-08
2.0276548e-05
7.6639215e-08
6.1592039e-08
2.0193702e-05
7.5459005e-08
5.9941722e-08
2.0112602e-05
7.430798e-08
5.8355247e-08
2.0033193e-05
7.3184923e-08
5.6829072e-08
1.9955419e-05
7.2088604e-08
5.5359955e-08
1.9879228e-05
7.1017629e-08
5.3944854e-08
1.9804572e-05
6.9970428e-08
5.2580715e-08
1.9731406e-05
6.8945257e-08
5.126478e-08
1.9659685e-05
6.7940137e-08
4.9994437e-08
1.9589371e-05
6.6953034e-08
4.8767069e-08
1.9520423e-05
6.5982348e-08
4.7580576e-08
1.9452806e-05
6.5028033e-08
4.6433088e-08
1.9386481e-05
6.4094118e-08
4.5323741e-08
1.9321404e-05
6.3194696e-08
4.4253104e-08
1.9257511e-05
6.236632e-08
4.3225228e-08
1.9194705e-05
6.169517e-08
4.2253174e-08
1.9132798e-05
6.1374088e-08
4.1377404e-08
1.9071394e-05
6.1822452e-08
4.0750645e-08
1.9009424e-05
6.3924752e-08
4.1057614e-08
1.8944661e-05
6.9304728e-08
4.3998869e-08
7.9170945e-08
7.466156e-08
0.0001054937
1.9169871e-06
6.4880407e-06
0.00010005365
3.2729596e-06
6.5816334e-06
9.4926077e-05
3.8288995e-06
6.1580777e-06
8.9946373e-05
3.9838108e-06
5.9262629e-06
8.5163276e-05
3.9595077e-06
5.6547657e-06
8.0619137e-05
3.7899368e-06
5.3103784e-06
7.6329462e-05
3.5015547e-06
4.9350725e-06
7.230016e-05
3.1412013e-06
4.5559928e-06
6.8534206e-05
2.7514802e-06
4.1846641e-06
6.5032983e-05
2.3633493e-06
3.8278853e-06
6.1795789e-05
1.9984144e-06
3.490711e-06
5.8818843e-05
1.6703759e-06
3.176301e-06
5.6094717e-05
1.3858295e-06
2.886043e-06
5.3612488e-05
1.1457945e-06
2.6200649e-06
5.1358373e-05
9.476412e-07
2.3777043e-06
4.9316593e-05
7.8676785e-07
2.1578272e-06
4.7470246e-05
6.5779545e-07
1.9590391e-06
4.5802069e-05
5.5532538e-07
1.7798252e-06
4.4295042e-05
4.7437115e-07
1.6186378e-06
4.293283e-05
4.1056669e-07
1.4739479e-06
4.1700078e-05
3.6023236e-07
1.3442759e-06
4.0582591e-05
3.2035744e-07
1.2282094e-06
3.956742e-05
2.8853736e-07
1.1244154e-06
3.8642881e-05
2.6289065e-07
1.0316467e-06
3.7798527e-05
2.4196986e-07
9.4874397e-07
3.7025076e-05
2.2467704e-07
8.746517e-07
3.6314324e-05
2.1018899e-07
8.0840409e-07
3.5659057e-05
1.9788608e-07
7.4911043e-07
3.5052961e-05
1.8731586e-07
6.9597284e-07
3.4490519e-05
1.7814875e-07
6.4827381e-07
3.3966922e-05
1.701317e-07
6.0537438e-07
3.3477973e-05
1.6306729e-07
5.6670868e-07
3.3020016e-05
1.5680298e-07
5.3177542e-07
3.2589865e-05
1.5122056e-07
5.0013245e-07
3.218474e-05
1.4622563e-07
4.7139136e-07
3.1802215e-05
1.4174073e-07
4.4521231e-07
3.1440168e-05
1.3770093e-07
4.2129809e-07
3.1096739e-05
1.3405094e-07
3.9938923e-07
3.0770297e-05
1.3074293e-07
3.7925956e-07
3.0459402e-05
1.2773514e-07
3.6071196e-07
3.0162787e-05
1.2499088e-07
3.4357477e-07
2.9879325e-05
1.2247786e-07
3.2769851e-07
2.960802e-05
1.2016734e-07
3.1295273e-07
2.934798e-05
1.1803381e-07
2.9922353e-07
2.9098408e-05
1.1605464e-07
2.8641138e-07
2.885859e-05
1.1420981e-07
2.7442904e-07
2.8627882e-05
1.124819e-07
2.6319999e-07
2.8405701e-05
1.108556e-07
2.5265687e-07
2.819152e-05
1.0931758e-07
2.4274021e-07
2.7984859e-05
1.0785648e-07
2.3339752e-07
2.7785279e-05
1.0646277e-07
2.2458211e-07
2.7592378e-05
1.0512869e-07
2.1625213e-07
2.740579e-05
1.0384734e-07
2.0837036e-07
2.7225174e-05
1.0261115e-07
2.0090364e-07
2.705022e-05
1.0140743e-07
1.9382258e-07
2.6880641e-05
1.0023385e-07
1.871004e-07
2.6716166e-05
9.9092365e-08
1.8071225e-07
2.6556546e-05
9.7979983e-08
1.7463557e-07
2.6401548e-05
9.6892532e-08
1.6885011e-07
2.6250957e-05
9.5827122e-08
1.6333745e-07
2.610457e-05
9.47817e-08
1.5808048e-07
2.5962199e-05
9.3754701e-08
1.5306363e-07
2.5823666e-05
9.2744857e-08
1.4827258e-07
2.5688804e-05
9.1751014e-08
1.4369413e-07
2.5557458e-05
9.0771776e-08
1.3931598e-07
2.5429481e-05
8.9805173e-08
1.3512691e-07
2.5304734e-05
8.885147e-08
1.3111643e-07
2.5183087e-05
8.7911224e-08
1.2727466e-07
2.5064416e-05
8.6983911e-08
1.2359242e-07
2.4948604e-05
8.6068908e-08
1.2006121e-07
2.4835542e-05
8.5165783e-08
1.1667302e-07
2.4725124e-05
8.4274339e-08
1.1342047e-07
2.4617252e-05
8.3394278e-08
1.1029654e-07
2.4511832e-05
8.2525482e-08
1.0729478e-07
2.4408775e-05
8.1667784e-08
1.0440897e-07
2.4307997e-05
8.0821004e-08
1.0163345e-07
2.4209416e-05
7.9985042e-08
9.8962659e-08
2.4112956e-05
7.9159772e-08
9.6391545e-08
2.4018546e-05
7.834505e-08
9.3915277e-08
2.3926115e-05
7.7540687e-08
9.1529296e-08
2.3835598e-05
7.6746562e-08
8.9229273e-08
2.3746933e-05
7.5962354e-08
8.7011022e-08
2.366006e-05
7.5187642e-08
8.4870716e-08
2.3574922e-05
7.4421962e-08
8.2804527e-08
2.3491466e-05
7.3664617e-08
8.0808925e-08
2.3409641e-05
7.29146e-08
7.8880385e-08
2.33294e-05
7.2170678e-08
7.7015512e-08
2.3250698e-05
7.1431343e-08
7.5211059e-08
2.3173492e-05
7.0694878e-08
7.3463646e-08
2.3097745e-05
6.9960215e-08
7.1770085e-08
2.3023418e-05
6.9228006e-08
7.0127005e-08
2.2950477e-05
6.8503505e-08
6.8531195e-08
2.2878889e-05
6.7802892e-08
6.6979705e-08
2.2808619e-05
6.7165081e-08
6.5471578e-08
2.2739625e-05
6.6675286e-08
6.4013391e-08
2.267185e-05
6.6507103e-08
6.2642304e-08
2.2605149e-05
6.6990764e-08
6.1532353e-08
2.2538888e-05
6.8686047e-08
6.1499907e-08
2.2471121e-05
7.2226991e-08
6.484513e-08
7.6722822e-08
9.8461323e-08
0.0001051979
1.3340884e-06
6.4961221e-06
9.9496561e-05
2.3731022e-06
6.6011947e-06
9.4262459e-05
2.9019224e-06
6.1610799e-06
8.9251186e-05
3.0856642e-06
5.9094196e-06
8.4493497e-05
3.0947347e-06
5.6224614e-06
8.0033635e-05
2.9846656e-06
5.265134e-06
7.5876907e-05
2.7790155e-06
4.8792667e-06
7.2014635e-05
2.5106843e-06
4.4927895e-06
6.8436293e-05
2.2128728e-06
4.1169489e-06
6.5131387e-05
1.9107259e-06
3.7575291e-06
6.208941e-05
1.6217321e-06
3.4186596e-06
5.9299432e-05
1.3573877e-06
3.1029661e-06
5.6749589e-05
1.1240344e-06
2.8116386e-06
5.4426788e-05
9.2377946e-07
2.5448158e-06
5.2316754e-05
7.5572796e-07
2.3019465e-06
5.0404313e-05
6.1717854e-07
2.0820302e-06
4.8673788e-05
5.045435e-07
1.8837772e-06
4.7109414e-05
4.1397182e-07
1.7057274e-06
4.5695713e-05
3.4173648e-07
1.5463363e-06
4.4417792e-05
2.8445148e-07
1.4040359e-06
4.3261575e-05
2.3917114e-07
1.277278e-06
4.2213952e-05
2.0341502e-07
1.1645652e-06
4.1262871e-05
1.7514744e-07
1.0644719e-06
4.039737e-05
1.5273235e-07
9.7565897e-07
3.9607583e-05
1.3487531e-07
8.9688143e-07
3.8884688e-05
1.2055569e-07
8.2701638e-07
3.8220847e-05
1.0901089e-07
7.6501854e-07
3.7609155e-05
9.9633855e-08
7.0994488e-07
3.7043542e-05
9.197748e-08
6.6095091e-07
3.6518702e-05
8.5705812e-08
6.1728288e-07
3.6030009e-05
8.05524e-08
5.782731e-07
3.5573433e-05
7.6308306e-08
5.4333412e-07
3.5145475e-05
7.2811291e-08
5.1195029e-07
3.4743091e-05
6.9934131e-08
4.8367023e-07
3.4363641e-05
6.7575435e-08
4.5810065e-07
3.4004828e-05
6.565286e-08
4.3489997e-07
3.3664659e-05
6.4098561e-08
4.1377207e-07
3.3341393e-05
6.2855912e-08
3.9446095e-07
3.3033513e-05
6.1877027e-08
3.7674527e-07
3.2739693e-05
6.1121058e-08
3.6043422e-07
3.2458768e-05
6.0553081e-08
3.4536328e-07
3.2189712e-05
6.0142665e-08
3.3139056e-07
3.1931622e-05
5.9863656e-08
3.1839378e-07
3.1683696e-05
5.969314e-08
3.0626734e-07
3.1445219e-05
5.9611217e-08
2.9492013e-07
3.1215555e-05
5.960062e-08
2.8427313e-07
3.0994132e-05
5.9646577e-08
2.7425807e-07
3.0780436e-05
5.973619e-08
2.6481539e-07
3.0574002e-05
5.9858672e-08
2.5589332e-07
3.0374407e-05
6.0004936e-08
2.474466e-07
3.0181267e-05
6.0167618e-08
2.3943548e-07
2.9994229e-05
6.0341237e-08
2.3182488e-07
2.9812971e-05
6.0521783e-08
2.2458373e-07
2.9637193e-05
6.0704437e-08
2.1768455e-07
2.9466629e-05
6.0867269e-08
2.1110457e-07
2.9301024e-05
6.1016984e-08
2.048218e-07
2.914014e-05
6.1160865e-08
1.988157e-07
2.8983756e-05
6.1294923e-08
1.9306836e-07
2.8831669e-05
6.1415464e-08
1.8756389e-07
2.8683688e-05
6.1520951e-08
1.8228763e-07
2.8539633e-05
6.1610565e-08
1.7722634e-07
2.8399336e-05
6.1683781e-08
1.7236783e-07
2.8262639e-05
6.1740489e-08
1.6770089e-07
2.8129394e-05
6.1780675e-08
1.6321517e-07
2.7999461e-05
6.180388e-08
1.5890121e-07
2.7872709e-05
6.1807338e-08
1.5475035e-07
2.7749012e-05
6.1793572e-08
1.5075441e-07
2.7628253e-05
6.176483e-08
1.4690559e-07
2.7510319e-05
6.1721025e-08
1.4319664e-07
2.7395105e-05
6.166213e-08
1.3962086e-07
2.728251e-05
6.1588644e-08
1.3617205e-07
2.7172439e-05
6.1501072e-08
1.3284422e-07
2.7064802e-05
6.1399998e-08
1.2963193e-07
2.6959511e-05
6.1285937e-08
1.2652991e-07
2.6856486e-05
6.1159523e-08
1.2353326e-07
2.6755649e-05
6.1021314e-08
1.2063728e-07
2.6656924e-05
6.0871871e-08
1.1783767e-07
2.6560242e-05
6.0711731e-08
1.1513012e-07
2.6465535e-05
6.0541391e-08
1.1251078e-07
2.6372738e-05
6.0361358e-08
1.0997581e-07
2.6281791e-05
6.0171961e-08
1.0752158e-07
2.6192636e-05
5.9973566e-08
1.0514467e-07
2.6105215e-05
5.9766355e-08
1.0284182e-07
2.6019477e-05
5.9550247e-08
1.0060969e-07
2.5935371e-05
5.9325129e-08
9.844527e-08
2.585285e-05
5.9090491e-08
9.6345406e-08
2.5771868e-05
5.884551e-08
9.4306933e-08
2.5692384e-05
5.8589031e-08
9.2326733e-08
2.5614357e-05
5.8319816e-08
9.0401469e-08
2.5537753e-05
5.8037118e-08
8.8527341e-08
2.5462539e-05
5.7741639e-08
8.6700207e-08
2.5388689e-05
5.7438447e-08
8.491518e-08
2.5316184e-05
5.7141478e-08
8.3166616e-08
2.5245017e-05
5.6882607e-08
8.1449688e-08
2.51752e-05
5.6726033e-08
7.9765837e-08
2.510677e-05
5.6787934e-08
7.814919e-08
2.5039729e-05
5.7251635e-08
7.678098e-08
2.4973573e-05
5.8330943e-08
7.6510216e-08
2.4906079e-05
5.9989493e-08
7.9732143e-08
6.071501e-08
1.1287823e-07
0.00010503672
9.078937e-07
6.5005614e-06
9.9140653e-05
1.6524914e-06
6.6166801e-06
9.3788329e-05
2.0825242e-06
6.1717217e-06
8.8708526e-05
2.2549373e-06
5.91053e-06
8.3909682e-05
2.278404e-06
5.6151748e-06
7.9437109e-05
2.2074821e-06
5.2497564e-06
7.5296201e-05
2.0645348e-06
4.8553893e-06
7.1474034e-05
1.8722543e-06
4.460597e-06
6.7955013e-05
1.6547667e-06
4.0771269e-06
6.4723621e-05
1.4313505e-06
3.7107669e-06
6.1764423e-05
1.2154297e-06
3.3655007e-06
5.9062056e-05
1.015864e-06
3.0438911e-06
5.6601108e-05
8.3782743e-07
2.7471548e-06
5.4365944e-05
6.8344646e-07
2.475497e-06
5.2340648e-05
5.5258524e-07
2.2284384e-06
5.0509125e-05
4.4366547e-07
2.0050361e-06
4.8855299e-05
3.5433456e-07
1.8040352e-06
4.7363353e-05
2.8193593e-07
1.6239821e-06
4.6017963e-05
2.2381345e-07
1.4633127e-06
4.4804502e-05
1.7749383e-07
1.320418e-06
4.3709199e-05
1.4078091e-07
1.1936935e-06
4.2719248e-05
1.1179151e-07
1.081575e-06
4.1822875e-05
8.8954504e-08
9.8256584e-07
4.1009364e-05
7.0987985e-08
8.9525474e-07
4.0269054e-05
5.6861832e-08
8.183238e-07
3.9593306e-05
4.571915e-08
7.5058476e-07
3.8974405e-05
3.6977859e-08
6.9093436e-07
3.8405585e-05
3.0067385e-08
6.3838632e-07
3.7880869e-05
2.465088e-08
5.9204241e-07
3.7395029e-05
2.0440003e-08
5.5110605e-07
3.6943514e-05
1.7190276e-08
5.1487714e-07
3.6522366e-05
1.4716753e-08
4.8273958e-07
3.6128148e-05
1.2874802e-08
4.5415391e-07
3.5757883e-05
1.1549909e-08
4.2864943e-07
3.5408991e-05
1.0650764e-08
4.0581703e-07
3.5079238e-05
1.0103609e-08
3.8530227e-07
3.4766689e-05
9.8482343e-09
3.6679877e-07
3.4469668e-05
9.8350926e-09
3.5004234e-07
3.4186716e-05
1.0022907e-08
3.3480554e-07
3.3916567e-05
1.0377047e-08
3.2089288e-07
3.3658116e-05
1.0868078e-08
3.0813659e-07
3.3410395e-05
1.1471011e-08
2.9639285e-07
3.3172556e-05
1.2164238e-08
2.8553825e-07
3.2943852e-05
1.2929304e-08
2.7546719e-07
3.2723625e-05
1.3750162e-08
2.6608891e-07
3.2511286e-05
1.4613074e-08
2.5732572e-07
3.2306316e-05
1.5506244e-08
2.4911067e-07
3.2108246e-05
1.6419581e-08
2.413862e-07
3.1916658e-05
1.7344624e-08
2.3410268e-07
3.1731171e-05
1.8274282e-08
2.2721711e-07
3.1551444e-05
1.9203165e-08
2.2069216e-07
3.1377162e-05
2.0127707e-08
2.1449507e-07
3.1208038e-05
2.1048634e-08
2.0859679e-07
3.10438e-05
2.1972733e-08
2.0297053e-07
3.0884232e-05
2.2827831e-08
1.9760737e-07
3.0729103e-05
2.3662957e-08
1.9248228e-07
3.05782e-05
2.4489993e-08
1.875738e-07
3.0431331e-05
2.5296248e-08
1.828676e-07
3.0288318e-05
2.6077956e-08
1.7835076e-07
3.0148994e-05
2.6834265e-08
1.7401106e-07
3.0013202e-05
2.756469e-08
1.6983754e-07
2.9880797e-05
2.8268979e-08
1.6582024e-07
2.975164e-05
2.8947455e-08
1.6195014e-07
2.96256e-05
2.9600784e-08
1.5821897e-07
2.9502557e-05
3.0228558e-08
1.5461919e-07
2.9382396e-05
3.0823596e-08
1.5114466e-07
2.9265007e-05
3.1393133e-08
1.4778876e-07
2.9150287e-05
3.1939606e-08
1.4454537e-07
2.9038137e-05
3.2461899e-08
1.4140902e-07
2.8928465e-05
3.2960086e-08
1.3837463e-07
2.8821181e-05
3.3434738e-08
1.354375e-07
2.8716203e-05
3.3886397e-08
1.3259329e-07
2.8613449e-05
3.4315558e-08
1.2983787e-07
2.8512845e-05
3.4722899e-08
1.2716738e-07
2.8414317e-05
3.5108974e-08
1.2457814e-07
2.8317797e-05
3.547447e-08
1.2206682e-07
2.8223219e-05
3.581991e-08
1.1963007e-07
2.813052e-05
3.6145911e-08
1.1726489e-07
2.803964e-05
3.6453093e-08
1.1496838e-07
2.7950522e-05
3.674188e-08
1.1273774e-07
2.7863111e-05
3.7012803e-08
1.1057026e-07
2.7777354e-05
3.7266265e-08
1.084634e-07
2.7693204e-05
3.7502505e-08
1.0641473e-07
2.761061e-05
3.7721615e-08
1.0442174e-07
2.752953e-05
3.7923562e-08
1.0248201e-07
2.7449919e-05
3.8107989e-08
1.0059304e-07
2.7371738e-05
3.8274309e-08
9.8752305e-08
2.7294949e-05
3.8421552e-08
9.6956889e-08
2.7219516e-05
3.8548755e-08
9.5203621e-08
2.714541e-05
3.8655117e-08
9.3488594e-08
2.7072603e-05
3.8741153e-08
9.1806934e-08
2.7001079e-05
3.8810297e-08
9.0152319e-08
2.6930832e-05
3.8872143e-08
8.8516564e-08
2.6861876e-05
3.8947399e-08
8.6890528e-08
2.679426e-05
3.9073572e-08
8.5269205e-08
2.6728065e-05
3.9306976e-08
8.3675949e-08
2.6663337e-05
3.9708319e-08
8.2271175e-08
2.659956e-05
4.027202e-08
8.183618e-08
2.6534295e-05
4.0698037e-08
8.455571e-08
3.9620849e-08
1.1507129e-07
0.00010494757
5.681108e-07
6.5033076e-06
9.8925416e-05
1.0462983e-06
6.6283517e-06
9.3480449e-05
1.3439844e-06
6.1835065e-06
8.8341777e-05
1.4751324e-06
5.9184763e-06
8.3502084e-05
1.4993911e-06
5.6187065e-06
7.9004057e-05
1.4572411e-06
5.2482679e-06
7.4853978e-05
1.3667382e-06
4.8478757e-06
7.1037378e-05
1.2423973e-06
4.4464569e-06
6.7536063e-05
1.0997693e-06
4.0563127e-06
6.4331998e-05
9.5192359e-07
3.683491e-06
6.1407318e-05
8.0805754e-07
3.3320524e-06
5.8744339e-05
6.7422202e-07
3.0046209e-06
5.6325632e-05
5.5404398e-07
2.7024907e-06
5.4133973e-05
4.4916748e-07
2.4259383e-06
5.2152298e-05
3.5972398e-07
2.174536e-06
5.0363747e-05
2.8484513e-07
1.9473718e-06
4.875178e-05
2.2310003e-07
1.7432015e-06
4.7300339e-05
1.7281167e-07
1.5605647e-06
4.5994012e-05
1.3226572e-07
1.3978748e-06
4.4818177e-05
9.9840002e-08
1.2534891e-06
4.3759121e-05
7.407559e-08
1.1257614e-06
4.2804123e-05
5.3707634e-08
1.0130814e-06
4.1941503e-05
3.7671221e-08
9.1390376e-07
4.1160627e-05
2.5096472e-08
8.2676732e-07
4.0451891e-05
1.5294183e-08
7.5030389e-07
3.980679e-05
7.5282017e-09
6.8329175e-07
3.9217543e-05
1.6727662e-09
6.2455203e-07
3.8677513e-05
-3.0330819e-09
5.7313082e-07
3.8180739e-05
-6.6486624e-09
5.2807352e-07
3.7722004e-05
-9.3595026e-09
4.8853451e-07
3.7296777e-05
-1.1371808e-08
4.5378926e-07
3.6901112e-05
-1.2818239e-08
4.2319914e-07
3.6531588e-05
-1.380528e-08
3.9620481e-07
3.6185236e-05
-1.4417452e-08
3.7231878e-07
3.5859491e-05
-1.4721903e-08
3.5111775e-07
3.5552132e-05
-1.4772625e-08
3.3223579e-07
3.5261237e-05
-1.4613928e-08
3.1535731e-07
3.4985143e-05
-1.4282191e-08
3.0021092e-07
3.472241e-05
-1.3807705e-08
2.8656377e-07
3.4471787e-05
-1.321588e-08
2.7421631e-07
3.4232185e-05
-1.2528179e-08
2.6299767e-07
3.4002657e-05
-1.1762818e-08
2.5276173e-07
3.3782373e-05
-1.0935252e-08
2.4338336e-07
3.3570606e-05
-1.0058785e-08
2.3475556e-07
3.3366714e-05
-9.1447256e-09
2.2678674e-07
3.3170131e-05
-8.202845e-09
2.1939834e-07
3.2980356e-05
-7.2412629e-09
2.1252298e-07
3.279694e-05
-6.2668976e-09
2.0610282e-07
3.2619482e-05
-5.2855174e-09
2.0008784e-07
3.2447623e-05
-4.3018206e-09
1.9443477e-07
3.228104e-05
-3.319091e-09
1.8910587e-07
3.2119438e-05
-2.3383377e-09
1.8406733e-07
3.1962554e-05
-1.353065e-09
1.7928647e-07
3.1810075e-05
-2.7634454e-10
1.7472762e-07
3.1661878e-05
5.858218e-10
1.7043906e-07
3.1517732e-05
1.4356208e-09
1.6637293e-07
3.1377429e-05
2.3038155e-09
1.6248961e-07
3.1240792e-05
3.1586291e-09
1.5877486e-07
3.1107656e-05
3.9969504e-09
1.5521718e-07
3.0977867e-05
4.8171498e-09
1.5180548e-07
3.0851284e-05
5.6179668e-09
1.4852969e-07
3.0727773e-05
6.3990437e-09
1.4538078e-07
3.0607209e-05
7.1609418e-09
1.4235058e-07
3.0489473e-05
7.9059586e-09
1.3943123e-07
3.037445e-05
8.6357404e-09
1.3661577e-07
3.0262049e-05
9.3206676e-09
1.3390397e-07
3.0152163e-05
9.9938055e-09
1.3128565e-07
3.0044697e-05
1.0650381e-08
1.2875512e-07
2.9939564e-05
1.1286733e-08
1.263083e-07
2.983668e-05
1.1903214e-08
1.2394088e-07
2.9735965e-05
1.2500181e-08
1.2164886e-07
2.9637345e-05
1.3077898e-08
1.1942844e-07
2.9540748e-05
1.3636753e-08
1.1727619e-07
2.9446105e-05
1.4177036e-08
1.1518882e-07
2.9353352e-05
1.4699203e-08
1.131634e-07
2.9262425e-05
1.5203558e-08
1.1119705e-07
2.9173268e-05
1.5690488e-08
1.0928709e-07
2.9085822e-05
1.6160397e-08
1.0743108e-07
2.9000035e-05
1.6613598e-08
1.0562666e-07
2.8915855e-05
1.7050406e-08
1.0387153e-07
2.8833233e-05
1.7471121e-08
1.0216362e-07
2.8752123e-05
1.7875987e-08
1.005008e-07
2.8672479e-05
1.8265096e-08
9.8881099e-08
2.8594259e-05
1.8638553e-08
9.7302479e-08
2.8517424e-05
1.899625e-08
9.5762972e-08
2.8441934e-05
1.9337814e-08
9.4260369e-08
2.8367753e-05
1.9662807e-08
9.2792361e-08
2.8294848e-05
1.9970482e-08
9.1356277e-08
2.8223187e-05
2.0260006e-08
8.9948895e-08
2.8152746e-05
2.0530738e-08
8.8565923e-08
2.8083503e-05
2.0782627e-08
8.7201787e-08
2.8015447e-05
2.1017535e-08
8.5848679e-08
2.7948582e-05
2.1240746e-08
8.449584e-08
2.7882937e-05
2.1462731e-08
8.3129509e-08
2.7818574e-05
2.1699999e-08
8.1736529e-08
2.7755588e-05
2.1969288e-08
8.0324344e-08
2.7694014e-05
2.2266199e-08
7.9016087e-08
2.7633299e-05
2.2506301e-08
7.848068e-08
2.7571004e-05
2.2393422e-08
8.0599464e-08
2.099309e-08
1.0779949e-07
0.00010489986
2.7443375e-07
6.5049155e-06
9.8802772e-05
5.0716633e-07
6.6362236e-06
9.329591e-05
6.5854974e-07
6.1922972e-06
8.8116302e-05
7.2902543e-07
5.9257147e-06
8.3248198e-05
7.4378811e-07