/*--------------------------------*- C++ -*----------------------------------*\
  =========                 |
  \\      /  F ield         | OpenFOAM: The Open Source CFD Toolbox
   \\    /   O peration     | Website:  https://openfoam.org
    \\  /    A nd           | Version:  7
     \\/     M anipulation  |
\*---------------------------------------------------------------------------*/
FoamFile
{
    version     2.0;
    format      ascii;
    class       volVectorField;
    location    "3250/water";
    object      U;
}
// * * * * * * * * * * * * * * * * * * * * * * * * * * * * * * * * * * * * * //

dimensions      [0 1 -1 0 0 0 0];

internalField   nonuniform List<vector> 
54000
(
(0.0090020934 0.00020305973 0.00020444027)
(0.0083186447 0.00023622738 0.00023904411)
(0.0073695241 0.00021363852 0.00021763527)
(0.0063566114 0.00018488016 0.00018965819)
(0.0054486673 0.00015530835 0.00016048633)
(0.0046741594 0.00012529952 0.00013052937)
(0.0040193038 9.7052611e-05 0.00010203017)
(0.0034740067 7.2578999e-05 7.7073287e-05)
(0.0030302461 5.2876127e-05 5.6738328e-05)
(0.0026757323 3.8068151e-05 4.1216512e-05)
(0.0023947254 2.7637704e-05 3.003714e-05)
(0.0021713898 2.0689035e-05 2.2336509e-05)
(0.0019919695 1.6236161e-05 1.7152703e-05)
(0.0018455015 1.3416236e-05 1.3643173e-05)
(0.0017237326 1.1582489e-05 1.1179123e-05)
(0.0016206928 1.0304892e-05 9.3455817e-06)
(0.0015321593 9.3257909e-06 7.8957159e-06)
(0.0014551546 8.5052969e-06 6.6953111e-06)
(0.0013875459 7.7746339e-06 5.6760577e-06)
(0.0013277612 7.1034284e-06 4.8034864e-06)
(0.001274601 6.4798504e-06 4.0581563e-06)
(0.0012271179 5.8999462e-06 3.4261571e-06)
(0.0011845424 5.3625301e-06 2.895071e-06)
(0.001146235 4.8670208e-06 2.4526293e-06)
(0.0011116558 4.4125997e-06 2.0869761e-06)
(0.0010803434 3.9980133e-06 1.7867462e-06)
(0.0010519002 3.6214602e-06 1.5416126e-06)
(0.0010259819 3.2805938e-06 1.3421857e-06)
(0.001002289 2.9733954e-06 1.1797306e-06)
(0.00098056199 2.6979492e-06 1.0463198e-06)
(0.00096057571 2.4519214e-06 9.365893e-07)
(0.00094213242 2.2325665e-06 8.4693264e-07)
(0.00092505792 2.0373861e-06 7.7316529e-07)
(0.00090920047 1.8640892e-06 7.1184184e-07)
(0.00089442818 1.7104631e-06 6.6046781e-07)
(0.0008806259 1.5743824e-06 6.170745e-07)
(0.00086769295 1.453861e-06 5.8005381e-07)
(0.00085554128 1.3470711e-06 5.4811462e-07)
(0.00084409387 1.2523496e-06 5.2023994e-07)
(0.00083328322 1.1681989e-06 4.9562858e-07)
(0.00082305015 1.0932616e-06 4.7365262e-07)
(0.00081334267 1.0262295e-06 4.5378266e-07)
(0.00080411486 9.658594e-07 4.3554525e-07)
(0.00079532615 9.1131058e-07 4.1865025e-07)
(0.0007869407 8.6191636e-07 4.0290754e-07)
(0.00077892675 8.1708291e-07 3.881686e-07)
(0.00077125603 7.7627654e-07 3.743202e-07)
(0.0007639033 7.390265e-07 3.6127627e-07)
(0.00075684598 7.0491431e-07 3.4896378e-07)
(0.00075006373 6.7357497e-07 3.3733144e-07)
(0.00074353822 6.4469441e-07 3.2633749e-07)
(0.00073725294 6.1802619e-07 3.1581861e-07)
(0.00073119314 5.93348e-07 3.0574399e-07)
(0.00072534528 5.7041986e-07 2.9621147e-07)
(0.00071969687 5.4902521e-07 2.871665e-07)
(0.00071423653 5.2901469e-07 2.7854376e-07)
(0.00070895386 5.1027332e-07 2.70312e-07)
(0.00070383928 4.9268699e-07 2.6244845e-07)
(0.00069888397 4.7614571e-07 2.5493188e-07)
(0.00069407976 4.6054962e-07 2.4774369e-07)
(0.00068941911 4.4582038e-07 2.4086423e-07)
(0.00068489502 4.3188457e-07 2.3427645e-07)
(0.00068050098 4.1867869e-07 2.2796449e-07)
(0.00067623091 4.0614691e-07 2.2191253e-07)
(0.00067207915 3.9423441e-07 2.1610488e-07)
(0.00066804042 3.8289697e-07 2.1053176e-07)
(0.00066410976 3.7209439e-07 2.051785e-07)
(0.00066028251 3.6179379e-07 2.0003205e-07)
(0.00065655429 3.5196181e-07 1.950831e-07)
(0.00065292099 3.4256976e-07 1.9031861e-07)
(0.00064937872 3.3358531e-07 1.8572817e-07)
(0.00064592384 3.2498765e-07 1.8130558e-07)
(0.00064255288 3.1675118e-07 1.7704081e-07)
(0.00063926261 3.0885658e-07 1.7292445e-07)
(0.00063604992 3.0128346e-07 1.6895083e-07)
(0.00063291192 2.940131e-07 1.6511114e-07)
(0.00062984583 2.8703098e-07 1.6139802e-07)
(0.00062684904 2.8032109e-07 1.5780363e-07)
(0.00062391907 2.7387033e-07 1.5432119e-07)
(0.00062105358 2.676655e-07 1.509424e-07)
(0.00061825035 2.6169394e-07 1.4766129e-07)
(0.00061550727 2.5594451e-07 1.4446923e-07)
(0.00061282235 2.5040623e-07 1.4135937e-07)
(0.00061019373 2.4506825e-07 1.3832465e-07)
(0.00060761965 2.3991959e-07 1.3535619e-07)
(0.00060509846 2.3494617e-07 1.3244817e-07)
(0.00060262863 2.3013491e-07 1.2959805e-07)
(0.00060020873 2.2546994e-07 1.2680359e-07)
(0.00059783744 2.2093132e-07 1.2407585e-07)
(0.00059551348 2.1649914e-07 1.2143325e-07)
(0.00059323555 2.121491e-07 1.1892985e-07)
(0.00059100214 2.0787212e-07 1.1666314e-07)
(0.00058881114 2.0369066e-07 1.1483044e-07)
(0.00058665898 1.9973045e-07 1.1381948e-07)
(0.0005845387 1.9638308e-07 1.1441104e-07)
(0.00058243501 1.9487302e-07 1.1837326e-07)
(0.00058031396 1.9977507e-07 1.309434e-07)
(0.0005781161 2.2258467e-07 1.6397609e-07)
(0.00057566369 1.9706896e-07 1.5080607e-07)
(0.00056906201 7.8896455e-07 7.5322605e-07)
(0.0095316863 0.0003313754 0.00022336697)
(0.0092716504 0.00041105943 0.00027052342)
(0.0087756651 0.00040317187 0.00026060063)
(0.0081527518 0.00038218754 0.00024252081)
(0.0075302151 0.00035309574 0.00022101125)
(0.0069425889 0.00031541062 0.00019648834)
(0.006391209 0.00027309198 0.00017102969)
(0.0058791845 0.00023030694 0.00014652546)
(0.0054120202 0.00019001855 0.00012410997)
(0.0049926512 0.00015423459 0.00010436627)
(0.004620592 0.00012408347 8.7479017e-05)
(0.0042931332 9.9809403e-05 7.3327496e-05)
(0.0040063965 8.0956424e-05 6.1601503e-05)
(0.0037559538 6.667221e-05 5.1918795e-05)
(0.0035372541 5.59858e-05 4.3907445e-05)
(0.003345947 4.7992056e-05 3.7246646e-05)
(0.0031780884 4.194171e-05 3.1677531e-05)
(0.0030302311 3.7262447e-05 2.6997922e-05)
(0.0028994324 3.3540996e-05 2.3051138e-05)
(0.0027832152 3.0490245e-05 1.9714593e-05)
(0.0026795075 2.7915737e-05 1.6890544e-05)
(0.0025865783 2.5687842e-05 1.4499382e-05)
(0.002502978 2.3720893e-05 1.2475016e-05)
(0.0024274871 2.195843e-05 1.0761725e-05)
(0.0023590736 2.0362993e-05 9.3122323e-06)
(0.0022968589 1.8909454e-05 8.0861284e-06)
(0.0022400906 1.7580767e-05 7.0489632e-06)
(0.0021881216 1.6364897e-05 6.1714984e-06)
(0.0021403932 1.5251963e-05 5.4283134e-06)
(0.0020964214 1.4233849e-05 4.7973497e-06)
(0.0020557868 1.3303041e-05 4.260481e-06)
(0.0020181236 1.2451985e-05 3.802703e-06)
(0.0019831119 1.1673907e-05 3.4109606e-06)
(0.0019504718 1.0962755e-05 3.0744202e-06)
(0.0019199589 1.0312854e-05 2.7842606e-06)
(0.0018913593 9.7188341e-06 2.5331799e-06)
(0.0018644851 9.1756452e-06 2.3150742e-06)
(0.0018391716 8.6785723e-06 2.124832e-06)
(0.0018152735 8.2232425e-06 1.958185e-06)
(0.0017926629 7.8056205e-06 1.811568e-06)
(0.0017712268 7.4219975e-06 1.6820114e-06)
(0.001750865 7.0689364e-06 1.5670701e-06)
(0.0017314886 6.7432682e-06 1.4647436e-06)
(0.0017130186 6.4422722e-06 1.373276e-06)
(0.0016953848 6.1635562e-06 1.2911596e-06)
(0.0016785241 5.9049778e-06 1.2171203e-06)
(0.00166238 5.6646094e-06 1.1500839e-06)
(0.0016469019 5.440725e-06 1.089149e-06)
(0.001632044 5.231777e-06 1.0335524e-06)
(0.0016177649 5.0363845e-06 9.8265419e-07)
(0.0016040271 4.8533235e-06 9.358943e-07)
(0.0015907965 4.6815636e-06 8.9273756e-07)
(0.0015780424 4.5201576e-06 8.527873e-07)
(0.0015657364 4.3681542e-06 8.1577007e-07)
(0.0015538526 4.2246829e-06 7.8138494e-07)
(0.0015423672 4.0890601e-06 7.4934483e-07)
(0.0015312583 3.9607277e-06 7.1941304e-07)
(0.0015205058 3.8391527e-06 6.9138832e-07)
(0.0015100909 3.7238143e-06 6.650945e-07)
(0.0014999963 3.6142433e-06 6.4037978e-07)
(0.0014902061 3.5100298e-06 6.1710852e-07)
(0.0014807053 3.4107984e-06 5.9516085e-07)
(0.00147148 3.3162109e-06 5.7442832e-07)
(0.0014625175 3.2259593e-06 5.5481466e-07)
(0.0014538055 3.1397547e-06 5.3623585e-07)
(0.0014453328 3.0573352e-06 5.186132e-07)
(0.0014370889 2.9784703e-06 5.0187876e-07)
(0.0014290637 2.9029567e-06 4.8596751e-07)
(0.001421248 2.8306016e-06 4.7082403e-07)
(0.001413633 2.7612179e-06 4.5639253e-07)
(0.0014062103 2.6946319e-06 4.4262772e-07)
(0.0013989723 2.6306899e-06 4.2948719e-07)
(0.0013919116 2.569245e-06 4.1692993e-07)
(0.0013850212 2.510164e-06 4.0491998e-07)
(0.0013782945 2.4533193e-06 3.9342473e-07)
(0.0013717253 2.3985946e-06 3.8241076e-07)
(0.0013653078 2.3458848e-06 3.7185119e-07)
(0.0013590364 2.2950863e-06 3.6171813e-07)
(0.0013529058 2.2461047e-06 3.5198417e-07)
(0.001346911 2.1988509e-06 3.4262589e-07)
(0.0013410472 2.1532414e-06 3.3361932e-07)
(0.0013353099 2.1091961e-06 3.249448e-07)
(0.001329695 2.0666362e-06 3.165786e-07)
(0.0013241983 2.0254871e-06 3.0850071e-07)
(0.001318816 1.9856737e-06 3.0068984e-07)
(0.0013135446 1.9471151e-06 2.9313064e-07)
(0.0013083808 1.9097271e-06 2.8580535e-07)
(0.0013033213 1.8734241e-06 2.7870115e-07)
(0.0012983632 1.838115e-06 2.718163e-07)
(0.0012935038 1.8037158e-06 2.6515444e-07)
(0.0012887402 1.7701703e-06 2.5874311e-07)
(0.0012840698 1.7375343e-06 2.5265034e-07)
(0.0012794889 1.7061224e-06 2.4701407e-07)
(0.0012749925 1.6769091e-06 2.4211473e-07)
(0.001270572 1.6524659e-06 2.3851783e-07)
(0.0012662098 1.6393342e-06 2.3766016e-07)
(0.0012618709 1.6545769e-06 2.4458254e-07)
(0.0012574959 1.7463725e-06 2.7712395e-07)
(0.0012529717 2.0376716e-06 2.6526399e-07)
(0.0012433358 2.9514829e-06 1.3525339e-06)
(0.0095221617 0.00021179965 0.00022180582)
(0.009269783 0.00029872516 0.00026628967)
(0.0088657772 0.00031669844 0.00025526743)
(0.0083755729 0.000317438 0.00023864265)
(0.0078888426 0.00030841043 0.00021987851)
(0.0074276349 0.00028848207 0.00019850458)
(0.006988258 0.00026048391 0.00017617916)
(0.0065698164 0.00022855168 0.00015444521)
(0.0061756011 0.00019596771 0.00013413534)
(0.0058087146 0.00016504408 0.00011567593)
(0.0054706295 0.00013728621 9.9270839e-05)
(0.0051615551 0.00011345265 8.494783e-05)
(0.0048808654 9.3684506e-05 7.2600737e-05)
(0.0046272998 7.7712987e-05 6.2044901e-05)
(0.0043991196 6.5057024e-05 5.3064542e-05)
(0.0041942886 5.5163888e-05 4.544363e-05)
(0.0040106431 4.7493347e-05 3.8982754e-05)
(0.0038460219 4.1561377e-05 3.3506382e-05)
(0.0036983537 3.6958194e-05 2.8864074e-05)
(0.0035657105 3.3351176e-05 2.4928486e-05)
(0.0034463343 3.0479504e-05 2.1592135e-05)
(0.003338646 2.8144769e-05 1.8764098e-05)
(0.003241243 2.6200155e-05 1.6367139e-05)
(0.0031528887 2.4539753e-05 1.433537e-05)
(0.0030724986 2.3088867e-05 1.261249e-05)
(0.0029991252 2.1796112e-05 1.1150135e-05)
(0.0029319421 2.0626904e-05 9.9064821e-06)
(0.0028702292 1.9558162e-05 8.8458151e-06)
(0.0028133589 1.8574037e-05 7.9385376e-06)
(0.0027607855 1.7663622e-05 7.1598234e-06)
(0.0027120345 1.6818833e-05 6.4890346e-06)
(0.0026666927 1.6033065e-05 5.9090197e-06)
(0.0026243991 1.5301095e-05 5.4052717e-06)
(0.0025848382 1.461882e-05 4.9656523e-06)
(0.0025477347 1.3982714e-05 4.5801149e-06)
(0.0025128472 1.3389544e-05 4.2403277e-06)
(0.002479964 1.2836282e-05 3.9393564e-06)
(0.0024488994 1.2320058e-05 3.6714258e-06)
(0.0024194896 1.1838144e-05 3.4317267e-06)
(0.00239159 1.1387938e-05 3.2162512e-06)
(0.0023650729 1.0966984e-05 3.0216607e-06)
(0.0023398248 1.0572998e-05 2.8451747e-06)
(0.0023157449 1.0203872e-05 2.6844746e-06)
(0.0022927433 9.8575805e-06 2.5375951e-06)
(0.0022707398 9.5322145e-06 2.4028643e-06)
(0.002249662 9.2260289e-06 2.2788674e-06)
(0.0022294453 8.9374183e-06 2.1644005e-06)
(0.0022100312 8.6649286e-06 2.0584393e-06)
(0.0021913666 8.4072379e-06 1.9601013e-06)
(0.0021734038 8.1631556e-06 1.8686323e-06)
(0.0021560989 7.9316227e-06 1.7833669e-06)
(0.0021394122 7.711725e-06 1.7037077e-06)
(0.0021233074 7.5026027e-06 1.6291517e-06)
(0.0021077512 7.3033786e-06 1.5592836e-06)
(0.0020927129 7.1131874e-06 1.4937196e-06)
(0.0020781645 6.9314147e-06 1.4321048e-06)
(0.0020640799 6.7576044e-06 1.3741137e-06)
(0.0020504351 6.5912629e-06 1.3194622e-06)
(0.0020372075 6.4318798e-06 1.2678947e-06)
(0.0020243766 6.2790064e-06 1.2191867e-06)
(0.0020119231 6.1322413e-06 1.1731324e-06)
(0.001999829 5.9912206e-06 1.1295434e-06)
(0.0019880776 5.8556106e-06 1.0882496e-06)
(0.0019766531 5.7251036e-06 1.0490959e-06)
(0.0019655411 5.5994082e-06 1.0119377e-06)
(0.0019547276 5.478245e-06 9.7664649e-07)
(0.0019441999 5.3613902e-06 9.4310157e-07)
(0.0019339458 5.2486472e-06 9.1119021e-07)
(0.0019239539 5.1398172e-06 8.8080781e-07)
(0.0019142135 5.0347015e-06 8.5186058e-07)
(0.0019047144 4.9331185e-06 8.2425987e-07)
(0.001895447 4.8348996e-06 7.9792477e-07)
(0.0018864023 4.7398904e-06 7.727807e-07)
(0.0018775718 4.6479447e-06 7.4875621e-07)
(0.0018689473 4.5589238e-06 7.2578751e-07)
(0.0018605211 4.4726994e-06 7.0381347e-07)
(0.0018522861 4.3891549e-06 6.8277749e-07)
(0.0018442353 4.3081708e-06 6.6262613e-07)
(0.0018363621 4.2296388e-06 6.4330785e-07)
(0.0018286604 4.153458e-06 6.2477666e-07)
(0.0018211241 4.0795301e-06 6.0698821e-07)
(0.0018137478 4.0077555e-06 5.8990071e-07)
(0.0018065261 3.9380361e-06 5.7347319e-07)
(0.001799454 3.8702793e-06 5.5766783e-07)
(0.0017925266 3.8043825e-06 5.4244779e-07)
(0.0017857396 3.7402377e-06 5.2777816e-07)
(0.0017790885 3.6777275e-06 5.1362927e-07)
(0.0017725695 3.6167256e-06 4.9996955e-07)
(0.0017661787 3.557108e-06 4.8677567e-07)
(0.0017599128 3.4987623e-06 4.7402581e-07)
(0.0017537682 3.4416549e-06 4.617104e-07)
(0.0017477416 3.3859666e-06 4.4983574e-07)
(0.0017418294 3.3323841e-06 4.3844322e-07)
(0.0017360272 3.2827923e-06 4.2764713e-07)
(0.0017303281 3.2417771e-06 4.1776858e-07)
(0.0017247202 3.2200421e-06 4.0999044e-07)
(0.001719183 3.2421554e-06 4.0984901e-07)
(0.001713691 3.3643449e-06 4.4114451e-07)
(0.0017081999 3.7072195e-06 4.7353378e-07)
(0.0016974804 4.4611205e-06 1.8634988e-06)
(0.0095012861 0.00013951169 0.00022248511)
(0.0092133349 0.00022408324 0.00026709763)
(0.0088018509 0.0002570094 0.00025529581)
(0.0083306071 0.00026690691 0.0002382081)
(0.0078754299 0.00026502158 0.00021939837)
(0.0074527063 0.0002529565 0.00019823245)
(0.0070564396 0.00023295893 0.00017634609)
(0.0066827538 0.00020836345 0.0001552305)
(0.006331873 0.00018203353 0.00013558338)
(0.0060047052 0.00015603739 0.00011769036)
(0.0057015056 0.00013180401 0.00010166909)
(0.0054220192 0.00011020724 8.7524314e-05)
(0.0051656909 9.1631898e-05 7.5171986e-05)
(0.0049316845 7.6091186e-05 6.4472618e-05)
(0.0047188814 6.3363143e-05 5.526115e-05)
(0.0045259349 5.3104942e-05 4.736682e-05)
(0.0043513547 4.4932756e-05 4.06249e-05)
(0.0041935865 3.8471361e-05 3.4883033e-05)
(0.0040510752 3.3381246e-05 3.0003996e-05)
(0.0039223115 2.9370509e-05 2.5866182e-05)
(0.0038058643 2.6197263e-05 2.2362868e-05)
(0.0037004012 2.3666732e-05 1.9400962e-05)
(0.0036047 2.1625759e-05 1.689961e-05)
(0.0035176529 1.9956329e-05 1.4788823e-05)
(0.0034382652 1.8569048e-05 1.3008104e-05)
(0.0033656513 1.7397362e-05 1.1504745e-05)
(0.0032990266 1.6392004e-05 1.0233524e-05)
(0.0032376995 1.5516241e-05 9.1565349e-06)
(0.0031810636 1.4743888e-05 8.2421118e-06)
(0.0031285885 1.4056152e-05 7.4635759e-06)
(0.0030798115 1.3438892e-05 6.7985195e-06)
(0.0030343294 1.288115e-05 6.2282223e-06)
(0.0029917905 1.2374495e-05 5.7369826e-06)
(0.0029518882 1.191242e-05 5.3116665e-06)
(0.0029143553 1.1489692e-05 4.9413544e-06)
(0.0028789586 1.1101929e-05 4.6170015e-06)
(0.0028454946 1.074538e-05 4.3311221e-06)
(0.0028137847 1.0416775e-05 4.0775276e-06)
(0.0027836727 1.0113218e-05 3.8511077e-06)
(0.0027550209 9.8321205e-06 3.6476458e-06)
(0.0027277081 9.5711585e-06 3.4636638e-06)
(0.002701627 9.3282496e-06 3.2963013e-06)
(0.0026766823 9.1015144e-06 3.1431921e-06)
(0.0026527895 8.8892428e-06 3.0023823e-06)
(0.0026298729 8.6898914e-06 2.8722567e-06)
(0.0026078648 8.5020887e-06 2.7514705e-06)
(0.002586704 8.3246166e-06 2.6389102e-06)
(0.0025663358 8.1563969e-06 2.5336421e-06)
(0.0025467102 7.9964775e-06 2.4348848e-06)
(0.002527782 7.8440277e-06 2.3419787e-06)
(0.0025095101 7.6983382e-06 2.2543615e-06)
(0.0024918566 7.5588103e-06 2.1715435e-06)
(0.0024747871 7.4248989e-06 2.0931123e-06)
(0.0024582699 7.2960207e-06 2.0187197e-06)
(0.0024422756 7.1714396e-06 1.9480688e-06)
(0.0024267775 7.0509274e-06 1.880899e-06)
(0.0024117506 6.9343762e-06 1.8169528e-06)
(0.0023971715 6.8214905e-06 1.7560013e-06)
(0.0023830185 6.7119564e-06 1.6978514e-06)
(0.0023692714 6.6055391e-06 1.642328e-06)
(0.0023559116 6.5020453e-06 1.5892716e-06)
(0.0023429214 6.4013087e-06 1.5385385e-06)
(0.0023302844 6.3031804e-06 1.4899946e-06)
(0.0023179851 6.2075248e-06 1.4435172e-06)
(0.0023060089 6.1142028e-06 1.3989948e-06)
(0.0022943424 6.023068e-06 1.3563258e-06)
(0.0022829727 5.9340584e-06 1.3154158e-06)
(0.0022718877 5.847129e-06 1.2761699e-06)
(0.002261076 5.762203e-06 1.2385022e-06)
(0.0022505267 5.6791993e-06 1.2023315e-06)
(0.0022402296 5.5980432e-06 1.1675835e-06)
(0.0022301752 5.5186731e-06 1.134188e-06)
(0.0022203542 5.4410314e-06 1.1020802e-06)
(0.002210758 5.3650641e-06 1.0711989e-06)
(0.0022013784 5.2907192e-06 1.0414849e-06)
(0.0021922076 5.2179489e-06 1.0128831e-06)
(0.0021832381 5.1467108e-06 9.8533858e-07)
(0.0021744628 5.076959e-06 9.5880416e-07)
(0.0021658752 5.0086499e-06 9.3323139e-07)
(0.0021574688 4.9417448e-06 9.0857513e-07)
(0.0021492375 4.8761994e-06 8.8479039e-07)
(0.0021411756 4.8119679e-06 8.6183979e-07)
(0.0021332776 4.7489997e-06 8.3967906e-07)
(0.0021255383 4.6872399e-06 8.1827125e-07)
(0.0021179527 4.6266221e-06 7.9757785e-07)
(0.0021105161 4.5670667e-06 7.7756057e-07)
(0.0021032242 4.5084817e-06 7.5818377e-07)
(0.0020960727 4.4507542e-06 7.3941147e-07)
(0.0020890577 4.3937747e-06 7.2120319e-07)
(0.0020821756 4.3374559e-06 7.0352013e-07)
(0.002075423 4.2818126e-06 6.8632109e-07)
(0.0020687967 4.2271351e-06 6.6956107e-07)
(0.0020622937 4.174355e-06 6.532031e-07)
(0.002055911 4.1258151e-06 6.3726331e-07)
(0.0020496453 4.0868294e-06 6.21985e-07)
(0.0020434926 4.0687772e-06 6.0874692e-07)
(0.0020374483 4.0948765e-06 6.0452105e-07)
(0.0020315149 4.2094245e-06 6.3987821e-07)
(0.0020256647 4.4797466e-06 7.1688295e-07)
(0.0020144539 4.9057758e-06 2.2695248e-06)
(0.0094902877 9.6726608e-05 0.00022289229)
(0.00917661 0.00016632333 0.00026788105)
(0.0087449456 0.00019969046 0.00025550648)
(0.0082664657 0.00021101604 0.00023762681)
(0.00781215 0.0002109939 0.0002181603)
(0.0073950862 0.0002028236 0.00019646328)
(0.0070087986 0.00018827265 0.00017418493)
(0.006648835 0.00016968865 0.0001528463)
(0.0063142174 0.00014929331 0.00013312182)
(0.0060045996 0.00012875288 0.0001152379)
(0.0057192201 0.00010923292 9.9256791e-05)
(0.0054570682 9.149007e-05 8.5148911e-05)
(0.0052170782 7.5923399e-05 7.2816212e-05)
(0.0049981259 6.2643331e-05 6.2119133e-05)
(0.0047989841 5.1561152e-05 5.2900047e-05)
(0.0046183234 4.2472278e-05 4.4997975e-05)
(0.0044547458 3.5118725e-05 3.8256896e-05)
(0.0043068267 2.9230545e-05 3.2530441e-05)
(0.0041731526 2.4550834e-05 2.768434e-05)
(0.0040523509 2.0849111e-05 2.3597362e-05)
(0.0039431142 1.7926913e-05 2.0161345e-05)
(0.0038442168 1.56186e-05 1.7280682e-05)
(0.0037545253 1.3789366e-05 1.4871531e-05)
(0.0036730042 1.233176e-05 1.2860862e-05)
(0.0035987172 1.1161539e-05 1.1185211e-05)
(0.0035308246 1.0213367e-05 9.7889737e-06)
(0.0034685786 9.4380819e-06 8.6250714e-06)
(0.0034113173 8.7971269e-06 7.6543154e-06)
(0.0033584589 8.2627208e-06 6.8439395e-06)
(0.0033094933 7.8140811e-06 6.1664547e-06)
(0.0032639753 7.4348219e-06 5.5988457e-06)
(0.0032215172 7.1121283e-06 5.1219272e-06)
(0.0031817817 6.8360944e-06 4.7197268e-06)
(0.0031444758 6.5990203e-06 4.3789733e-06)
(0.0031093448 6.3947806e-06 4.0886809e-06)
(0.0030761678 6.2184052e-06 3.8397973e-06)
(0.0030447526 6.0657957e-06 3.6248793e-06)
(0.003014932 5.9335278e-06 3.4378176e-06)
(0.0029865602 5.818696e-06 3.2736177e-06)
(0.0029595097 5.7188199e-06 3.1282053e-06)
(0.002933669 5.6317492e-06 2.998261e-06)
(0.0029089401 5.5556274e-06 2.8810967e-06)
(0.0028852364 5.4888244e-06 2.7745341e-06)
(0.0028624815 5.4299136e-06 2.676811e-06)
(0.0028406075 5.377644e-06 2.5865056e-06)
(0.0028195538 5.3309231e-06 2.5024726e-06)
(0.0027992664 5.2888091e-06 2.4237889e-06)
(0.0027796963 5.2504827e-06 2.3497108e-06)
(0.0027607998 5.2152437e-06 2.2796381e-06)
(0.002742537 5.1824988e-06 2.2130846e-06)
(0.0027248717 5.1517672e-06 2.1496545e-06)
(0.0027077708 5.1226684e-06 2.0890226e-06)
(0.0026912041 5.0948963e-06 2.0309201e-06)
(0.0026751435 5.0680865e-06 1.9751365e-06)
(0.0026595636 5.0410654e-06 1.9215395e-06)
(0.0026444411 5.0142592e-06 1.8699676e-06)
(0.002629754 4.9880174e-06 1.8202525e-06)
(0.0026154815 4.9620724e-06 1.7722791e-06)
(0.0026016045 4.9361419e-06 1.7259599e-06)
(0.0025881054 4.9100859e-06 1.681214e-06)
(0.0025749674 4.8838331e-06 1.6379656e-06)
(0.002562175 4.8573392e-06 1.5961464e-06)
(0.0025497136 4.8305807e-06 1.555694e-06)
(0.0025375693 4.803539e-06 1.5165488e-06)
(0.0025257292 4.7761744e-06 1.4786614e-06)
(0.002514181 4.7483834e-06 1.4419861e-06)
(0.0025029134 4.7202753e-06 1.4064833e-06)
(0.0024919154 4.6919146e-06 1.3721021e-06)
(0.0024811765 4.663292e-06 1.3387982e-06)
(0.002470687 4.6344042e-06 1.3065299e-06)
(0.0024604377 4.6052693e-06 1.2752606e-06)
(0.0024504197 4.5759098e-06 1.2449544e-06)
(0.0024406247 4.5463476e-06 1.2155753e-06)
(0.0024310448 4.5166034e-06 1.1870931e-06)
(0.0024216723 4.4866961e-06 1.1594727e-06)
(0.0024125001 4.4566518e-06 1.1326844e-06)
(0.0024035213 4.4264887e-06 1.106697e-06)
(0.0023947295 4.3962297e-06 1.0814827e-06)
(0.0023861184 4.3658902e-06 1.0570127e-06)
(0.0023776821 4.3354876e-06 1.0332592e-06)
(0.0023694149 4.3050327e-06 1.0101955e-06)
(0.0023613115 4.2745351e-06 9.8779541e-07)
(0.0023533667 4.2439943e-06 9.6603026e-07)
(0.0023455757 4.2133973e-06 9.4487473e-07)
(0.0023379338 4.1827223e-06 9.2429991e-07)
(0.0023304365 4.1519262e-06 9.0427582e-07)
(0.0023230798 4.1209532e-06 8.8477166e-07)
(0.0023158598 4.0897239e-06 8.6575257e-07)
(0.0023087726 4.0581558e-06 8.4717226e-07)
(0.002301815 4.0261912e-06 8.2897918e-07)
(0.0022949838 3.9938774e-06 8.1110646e-07)
(0.0022882766 3.9615306e-06 7.9346157e-07)
(0.002281691 3.9300787e-06 7.7594321e-07)
(0.0022752261 3.9016918e-06 7.584777e-07)
(0.002268882 3.8809396e-06 7.4124665e-07)
(0.0022626608 3.8766475e-06 7.2572646e-07)
(0.0022565686 3.9043027e-06 7.1957912e-07)
(0.0022506189 3.9866531e-06 7.5579877e-07)
(0.0022447715 4.139098e-06 8.4931699e-07)
(0.002233564 4.2832247e-06 2.4122113e-06)
(0.0094843561 6.6886586e-05 0.00022303624)
(0.0091549219 0.00011904886 0.00026838771)
(0.0087072816 0.00014772496 0.00025588053)
(0.0082191888 0.00015892952 0.00023765677)
(0.0077602858 0.00016026049 0.00021787142)
(0.0073412804 0.00015505102 0.00019586613)
(0.0069552494 0.00014481701 0.00017327438)
(0.0065978366 0.00013121474 0.00015165024)
(0.0062677954 0.00011592881 0.00013169211)
(0.0059642872 0.00010028521 0.0001136244)
(0.0056860598 8.5214431e-05 9.7497523e-05)
(0.0054316726 7.1330408e-05 8.3272197e-05)
(0.0051997008 5.8984298e-05 7.0844884e-05)
(0.0049887459 4.8311754e-05 6.0073373e-05)
(0.0047973943 3.9291582e-05 5.079889e-05)
(0.0046242055 3.1804355e-05 4.2859902e-05)
(0.0044677269 2.5679086e-05 3.6099808e-05)
(0.0043265179 2.0725785e-05 3.0371291e-05)
(0.0041991724 1.6756343e-05 2.5538702e-05)
(0.004084339 1.3596838e-05 2.1479083e-05)
(0.0039807371 1.1093754e-05 1.8082323e-05)
(0.0038871692 9.116165e-06 1.525079e-05)
(0.0038025288 7.5553801e-06 1.2898646e-05)
(0.003725804 6.3231337e-06 1.0950986e-05)
(0.0036560786 5.3488184e-06 9.342678e-06)
(0.0035925304 4.575181e-06 8.0166134e-06)
(0.0035344253 3.9620989e-06 6.9239484e-06)
(0.0034811131 3.472627e-06 6.0250727e-06)
(0.0034320221 3.0815202e-06 5.2862629e-06)
(0.0033866501 2.7702763e-06 4.6792113e-06)
(0.0033445586 2.5236735e-06 4.1805214e-06)
(0.0033053662 2.3295846e-06 3.7707532e-06)
(0.0032687419 2.1784954e-06 3.4337455e-06)
(0.0032343982 2.0629049e-06 3.1561118e-06)
(0.0032020863 1.9768087e-06 2.9267975e-06)
(0.0031715907 1.9153168e-06 2.7367051e-06)
(0.0031427248 1.8743787e-06 2.5783564e-06)
(0.0031153267 1.8506041e-06 2.4456297e-06)
(0.0030892563 1.8411242e-06 2.3335227e-06)
(0.0030643915 1.8434995e-06 2.237967e-06)
(0.003040626 1.8556453e-06 2.1556624e-06)
(0.0030178671 1.8757814e-06 2.0839518e-06)
(0.0029960335 1.9023819e-06 2.0206948e-06)
(0.0029750538 1.9341348e-06 1.9641818e-06)
(0.0029548649 1.9699149e-06 1.9130529e-06)
(0.0029354109 2.0087627e-06 1.8662264e-06)
(0.0029166424 2.0498594e-06 1.8228526e-06)
(0.0028985148 2.0925099e-06 1.7822577e-06)
(0.0028809886 2.1361381e-06 1.7439149e-06)
(0.0028640277 2.1802717e-06 1.7074096e-06)
(0.0028476 2.2245518e-06 1.6724139e-06)
(0.0028316758 2.2687612e-06 1.638655e-06)
(0.0028162284 2.3128941e-06 1.6058715e-06)
(0.0028012324 2.3570803e-06 1.5738222e-06)
(0.0027866658 2.3978714e-06 1.5431887e-06)
(0.0027725089 2.4362361e-06 1.5136878e-06)
(0.0027587418 2.4734397e-06 1.4848888e-06)
(0.002745346 2.5095348e-06 1.4567012e-06)
(0.002732305 2.5443511e-06 1.4291164e-06)
(0.0027196032 2.5777722e-06 1.4021121e-06)
(0.0027072261 2.6097239e-06 1.3756639e-06)
(0.0026951602 2.6401654e-06 1.3497561e-06)
(0.0026833928 2.6690871e-06 1.3243745e-06)
(0.0026719116 2.6965027e-06 1.2995084e-06)
(0.0026607054 2.7223719e-06 1.2751522e-06)
(0.0026497635 2.746355e-06 1.251313e-06)
(0.002639076 2.7689086e-06 1.2279786e-06)
(0.0026286333 2.7901468e-06 1.2051288e-06)
(0.0026184262 2.8099952e-06 1.182761e-06)
(0.0026084461 2.8284336e-06 1.1608707e-06)
(0.0025986849 2.8454938e-06 1.1394486e-06)
(0.0025891348 2.8612189e-06 1.1184899e-06)
(0.0025797885 2.8756508e-06 1.0979869e-06)
(0.002570639 2.888831e-06 1.0779285e-06)
(0.0025616795 2.9008049e-06 1.0583097e-06)
(0.0025529038 2.9116208e-06 1.0391201e-06)
(0.0025443058 2.9213147e-06 1.0203485e-06)
(0.0025358796 2.929931e-06 1.00199e-06)
(0.0025276198 2.9375066e-06 9.8403176e-07)
(0.002519521 2.9440795e-06 9.6646548e-07)
(0.0025115783 2.9496803e-06 9.4927981e-07)
(0.0025037869 2.9543372e-06 9.3246177e-07)
(0.0024961421 2.9580685e-06 9.1600051e-07)
(0.0024886396 2.9608819e-06 8.9987925e-07)
(0.0024812752 2.9627738e-06 8.8408394e-07)
(0.002474045 2.9637224e-06 8.6859343e-07)
(0.0024669452 2.9636871e-06 8.5338194e-07)
(0.0024599723 2.9626117e-06 8.3841414e-07)
(0.0024531231 2.96043e-06 8.2364347e-07)
(0.0024463945 2.9570949e-06 8.0900243e-07)
(0.0024397839 2.9526507e-06 7.9439787e-07)
(0.0024332894 2.9473507e-06 7.7969346e-07)
(0.0024269099 2.9419132e-06 7.6470861e-07)
(0.0024206457 2.9379222e-06 7.4925945e-07)
(0.0024144993 2.9384182e-06 7.3336395e-07)
(0.0024084767 2.9484955e-06 7.1826356e-07)
(0.0024025877 2.975124e-06 7.1113252e-07)
(0.002396846 3.0234597e-06 7.4331296e-07)
(0.0023911946 3.0808296e-06 8.3046635e-07)
(0.0023803644 3.0574258e-06 2.2999431e-06)
(0.0094810492 4.4090135e-05 0.00022308885)
(0.0091422796 7.9975482e-05 0.00026874495)
(0.0086839084 0.00010160921 0.00025628771)
(0.0081880903 0.00011101591 0.00023793456)
(0.0077246858 0.00011275118 0.00021798622)
(0.0073029895 0.00010953687 0.00019578738)
(0.0069155191 0.00010266029 0.00017296032)
(0.0065579578 9.3267235e-05 0.0001510852)
(0.006229001 8.2539592e-05 0.00013089045)
(0.005927585 7.1446832e-05 0.00011261412)
(0.0056522063 6.067336e-05 9.6309239e-05)
(0.0054012005 5.0670807e-05 8.1936268e-05)
(0.0051729477 4.1706609e-05 6.9390832e-05)
(0.004965887 3.3898115e-05 5.8529097e-05)
(0.0047784814 2.7249953e-05 4.9189878e-05)
(0.0046092054 2.1693073e-05 4.1208773e-05)
(0.0044565535 1.7117437e-05 3.4426143e-05)
(0.0043190553 1.3395518e-05 2.8691658e-05)
(0.0041952917 1.039781e-05 2.3866804e-05)
(0.0040839086 8.0023314e-06 1.9826012e-05)
(0.0039836292 6.0997704e-06 1.6456861e-05)
(0.0038932634 4.5956635e-06 1.3659716e-05)
(0.0038117126 3.4106739e-06 1.1347013e-05)
(0.0037379734 2.4799289e-06 9.4422916e-06)
(0.0036711359 1.7515112e-06 7.8790896e-06)
(0.0036103859 1.1749052e-06 6.6010324e-06)
(0.0035549935 7.2234168e-07 5.5561197e-06)
(0.0035043108 3.7342443e-07 4.7060701e-06)
(0.0034577717 1.0569656e-07 4.0163447e-06)
(0.0034148763 -9.9089125e-08 3.4574136e-06)
(0.0033751872 -2.5333584e-07 3.0054958e-06)
(0.0033383243 -3.6640022e-07 2.6409743e-06)
(0.0033039576 -4.4578078e-07 2.3475734e-06)
(0.0032718009 -4.9748471e-07 2.1118266e-06)
(0.0032416065 -5.2634715e-07 1.9226419e-06)
(0.0032131599 -5.3631141e-07 1.7709156e-06)
(0.0031862758 -5.3064154e-07 1.649203e-06)
(0.0031607936 -5.1206352e-07 1.551442e-06)
(0.0031365743 -4.8287131e-07 1.4727105e-06)
(0.0031134976 -4.4500625e-07 1.409033e-06)
(0.0030914586 -4.0011024e-07 1.3572052e-06)
(0.0030703663 -3.4957927e-07 1.3146562e-06)
(0.0030501409 -2.9459405e-07 1.2793311e-06)
(0.0030307129 -2.3616947e-07 1.2495915e-06)
(0.0030120207 -1.7516574e-07 1.2241412e-06)
(0.0029940105 -1.1232051e-07 1.2019529e-06)
(0.0029766343 -4.8266885e-08 1.1822233e-06)
(0.0029598495 1.6449e-08 1.1643227e-06)
(0.0029436181 8.1354342e-08 1.1477532e-06)
(0.002927906 1.46024e-07 1.1321238e-06)
(0.0029126825 2.1005861e-07 1.1171181e-06)
(0.0028979201 2.7304948e-07 1.1024389e-06)
(0.0028835935 3.3454174e-07 1.0876607e-06)
(0.0028696773 3.9432454e-07 1.0722026e-06)
(0.0028561514 4.5705018e-07 1.0590084e-06)
(0.0028429997 5.20601e-07 1.0472574e-06)
(0.0028302035 5.8225384e-07 1.035608e-06)
(0.0028177449 6.4163952e-07 1.023801e-06)
(0.0028056084 6.9902061e-07 1.0118749e-06)
(0.0027937799 7.5456046e-07 9.9986831e-07)
(0.0027822461 8.0834908e-07 9.8781e-07)
(0.0027709946 8.6046909e-07 9.7571922e-07)
(0.0027600137 9.1102486e-07 9.63602e-07)
(0.0027492926 9.6019378e-07 9.5144665e-07)
(0.0027388207 1.0080049e-06 9.3926755e-07)
(0.0027285887 1.0528499e-06 9.2746634e-07)
(0.0027185878 1.0958673e-06 9.1582983e-07)
(0.0027088089 1.1375002e-06 9.0425386e-07)
(0.0026992438 1.177767e-06 8.9276003e-07)
(0.0026898847 1.2166575e-06 8.8136627e-07)
(0.0026807244 1.2541705e-06 8.7008015e-07)
(0.0026717559 1.2903159e-06 8.5890619e-07)
(0.0026629726 1.3251079e-06 8.4785177e-07)
(0.0026543682 1.358573e-06 8.3692242e-07)
(0.0026459367 1.3907394e-06 8.2612166e-07)
(0.0026376723 1.4216362e-06 8.1545346e-07)
(0.0026295698 1.4512905e-06 8.0491988e-07)
(0.0026216238 1.4797321e-06 7.9452227e-07)
(0.0026138294 1.5069913e-06 7.8426326e-07)
(0.002606182 1.5330941e-06 7.7414044e-07)
(0.0025986769 1.558064e-06 7.6415255e-07)
(0.0025913099 1.5819213e-06 7.5429542e-07)
(0.0025840769 1.6046806e-06 7.4456462e-07)
(0.0025769739 1.6263488e-06 7.3495249e-07)