/*--------------------------------*- C++ -*----------------------------------*\
  =========                 |
  \\      /  F ield         | OpenFOAM: The Open Source CFD Toolbox
   \\    /   O peration     | Website:  https://openfoam.org
    \\  /    A nd           | Version:  7
     \\/     M anipulation  |
\*---------------------------------------------------------------------------*/
FoamFile
{
    version     2.0;
    format      ascii;
    class       surfaceScalarField;
    location    "700/water";
    object      phi;
}
// * * * * * * * * * * * * * * * * * * * * * * * * * * * * * * * * * * * * * //

dimensions      [1 0 -1 0 0 0 0];

internalField   nonuniform List<scalar> 
156660
(
9.905724e-05
6.0010402e-06
6.0528092e-06
8.6847498e-05
6.0555113e-06
6.1542307e-06
7.5687891e-05
5.5111362e-06
5.6484701e-06
6.5441704e-05
5.0404181e-06
5.2057689e-06
5.6267661e-05
4.4956436e-06
4.6783991e-06
4.8318019e-05
3.8797648e-06
4.0698777e-06
4.1624776e-05
3.2524448e-06
3.4407982e-06
3.6124897e-05
2.660462e-06
2.839417e-06
3.1692235e-05
2.1345126e-06
2.2981489e-06
2.8162841e-05
1.6926975e-06
1.8366964e-06
2.5361437e-05
1.3399933e-06
1.4614113e-06
2.3124664e-05
1.0698477e-06
1.1669256e-06
2.1315127e-05
8.6875418e-07
9.4078224e-07
1.9825714e-05
7.2110063e-07
7.6831273e-07
1.8577278e-05
6.1248245e-07
6.3595308e-07
1.7513255e-05
5.3125221e-07
5.327715e-07
1.6593744e-05
4.6879724e-07
4.5071349e-07
1.5790433e-05
4.1913716e-07
3.8417386e-07
1.5082784e-05
3.7829069e-07
3.2935846e-07
1.4455417e-05
3.4367127e-07
2.8369563e-07
1.3896409e-05
3.136141e-07
2.4539333e-07
1.339622e-05
2.8704447e-07
2.1314452e-07
1.2947015e-05
2.6326029e-07
1.859451e-07
1.2542237e-05
2.4179366e-07
1.6298463e-07
1.2176318e-05
2.2232209e-07
1.4359691e-07
1.1844484e-05
2.046148e-07
1.2721881e-07
1.1542609e-05
1.8849495e-07
1.1337974e-07
1.1267116e-05
1.7381573e-07
1.0167796e-07
1.1014892e-05
1.6046271e-07
9.176082e-08
1.0783252e-05
1.4833967e-07
8.3300583e-08
1.0569851e-05
1.3734905e-07
7.6052156e-08
1.0372614e-05
1.2738864e-07
6.9848346e-08
1.0189731e-05
1.1836808e-07
6.4514855e-08
1.001963e-05
1.102045e-07
5.9896636e-08
9.8609388e-06
1.0281923e-07
5.587165e-08
9.7124594e-06
9.6137979e-08
5.2341368e-08
9.5731439e-06
9.0091184e-08
4.9224328e-08
9.4420759e-06
8.4614466e-08
4.6453564e-08
9.3184531e-06
7.9648654e-08
4.397411e-08
9.2015723e-06
7.5139685e-08
4.1741103e-08
9.0908166e-06
7.1038165e-08
3.9717557e-08
8.9856432e-06
6.7301173e-08
3.7872305e-08
8.8855707e-06
6.3894263e-08
3.6178148e-08
8.7901757e-06
6.0780129e-08
3.4614955e-08
8.6990829e-06
5.7926172e-08
3.316664e-08
8.611959e-06
5.530371e-08
3.1820127e-08
8.5285072e-06
5.2887428e-08
3.0564406e-08
8.4484618e-06
5.0655059e-08
2.93903e-08
8.3715848e-06
4.8587072e-08
2.8290014e-08
8.2976614e-06
4.6666201e-08
2.7257221e-08
8.2264975e-06
4.4877486e-08
2.6286425e-08
8.1579202e-06
4.320879e-08
2.5368544e-08
8.0917731e-06
4.1649049e-08
2.4498027e-08
8.0279107e-06
4.0186989e-08
2.3675344e-08
7.9662005e-06
3.8812659e-08
2.2897552e-08
7.9065219e-06
3.751838e-08
2.2160217e-08
7.8487639e-06
3.6297865e-08
2.1460149e-08
7.7928241e-06
3.5145162e-08
2.0794595e-08
7.7386083e-06
3.4054664e-08
2.0161153e-08
7.6860293e-06
3.3021358e-08
1.9557686e-08
7.6350062e-06
3.2040836e-08
1.8982276e-08
7.5854641e-06
3.1109076e-08
1.8433066e-08
7.537333e-06
3.0222615e-08
1.7908483e-08
7.4905478e-06
2.9378224e-08
1.7407007e-08
7.4450476e-06
2.8572986e-08
1.6927223e-08
7.4007756e-06
2.7804245e-08
1.6467808e-08
7.3576783e-06
2.7069618e-08
1.6027639e-08
7.3157056e-06
2.6367089e-08
1.5605622e-08
7.2748103e-06
2.5694639e-08
1.5200657e-08
7.2349479e-06
2.5050559e-08
1.4811843e-08
7.1960766e-06
2.4433091e-08
1.4438171e-08
7.158157e-06
2.3840705e-08
1.4078958e-08
7.1211518e-06
2.327193e-08
1.3733287e-08
7.0850258e-06
2.2725505e-08
1.340051e-08
7.0497457e-06
2.2200214e-08
1.3079952e-08
7.0152798e-06
2.1694906e-08
1.2770904e-08
6.9815985e-06
2.1208594e-08
1.2472782e-08
6.9486733e-06
2.0740247e-08
1.2184921e-08
6.9164775e-06
2.0288981e-08
1.1906805e-08
6.8849857e-06
1.9853963e-08
1.1637832e-08
6.8541739e-06
1.9434383e-08
1.1377467e-08
6.8240194e-06
1.9029493e-08
1.1125085e-08
6.7945006e-06
1.863849e-08
1.0880228e-08
6.7655975e-06
1.826076e-08
1.0642301e-08
6.7372912e-06
1.789553e-08
1.0410764e-08
6.709564e-06
1.7542115e-08
1.018509e-08
6.6823995e-06
1.7199603e-08
9.9648442e-09
6.6557824e-06
1.686732e-08
9.7497794e-09
6.6296983e-06
1.6544117e-08
9.5399708e-09
6.6041331e-06
1.6229281e-08
9.3359797e-09
6.5790714e-06
1.5921968e-08
9.1396522e-09
6.554494e-06
1.5622332e-08
8.9551108e-09
6.5303708e-06
1.5332578e-08
8.7906658e-09
6.5066467e-06
1.5060468e-08
8.6636173e-09
6.4832094e-06
1.4827804e-08
8.6095411e-09
6.4598103e-06
1.469308e-08
8.7060217e-09
6.4358387e-06
1.482641e-08
9.1451292e-09
6.4096302e-06
1.574176e-08
1.0466742e-08
6.3782854e-06
1.8026538e-08
1.3318209e-08
3.2300207e-08
2.7923553e-08
0.00010646494
4.1872385e-06
6.4599816e-06
0.0001002019
5.695418e-06
6.6231353e-06
9.3659588e-05
5.7790388e-06
6.2744098e-06
8.7011589e-05
5.6514782e-06
6.0369387e-06
8.0422927e-05
5.3669119e-06
5.7173941e-06
7.4094022e-05
4.9022832e-06
5.3063862e-06
6.8167026e-05
4.3278135e-06
4.8516273e-06
6.2722565e-05
3.717891e-06
4.387032e-06
5.7799049e-05
3.1243144e-06
3.9337144e-06
5.3403345e-05
2.5820689e-06
3.5063329e-06
4.9517402e-05
2.1121062e-06
3.1138299e-06
4.6105482e-05
1.7220197e-06
2.7597474e-06
4.3121558e-05
1.4089355e-06
2.4437429e-06
4.0515558e-05
1.1637552e-06
2.163346e-06
3.8237948e-05
9.7485853e-07
1.9152336e-06
3.6242683e-05
8.3055974e-07
1.6959573e-06
3.4488759e-05
7.2043697e-07
1.5022849e-06
3.2940716e-05
6.3586296e-07
1.3313172e-06
3.1568463e-05
5.7005003e-07
1.1804931e-06
3.0346733e-05
5.1784895e-07
1.0475522e-06
2.9254398e-05
4.7545952e-07
9.304903e-07
2.8273782e-05
4.4013959e-07
8.2752021e-07
2.7390054e-05
4.0994894e-07
7.3704007e-07
2.6590699e-05
3.8353955e-07
6.5760857e-07
2.5865102e-05
3.5998888e-07
5.8793074e-07
2.5204197e-05
3.3867631e-07
5.2684261e-07
2.4600205e-05
3.1918358e-07
4.7330347e-07
2.4046429e-05
3.012019e-07
4.2639017e-07
2.3537073e-05
2.8455207e-07
3.8526715e-07
2.3067119e-05
2.6911101e-07
3.4918241e-07
2.2632208e-05
2.5478167e-07
3.1747788e-07
2.2228528e-05
2.4147381e-07
2.8959534e-07
2.1852744e-05
2.2911071e-07
2.6504124e-07
2.1501947e-05
2.1762894e-07
2.4337257e-07
2.1173591e-05
2.0696954e-07
2.2420571e-07
2.0865444e-05
1.9707567e-07
2.0720869e-07
2.0575549e-05
1.8789254e-07
1.9209398e-07
2.0302183e-05
1.7936725e-07
1.7861344e-07
2.0043829e-05
1.714491e-07
1.6655323e-07
1.979915e-05
1.6408984e-07
1.5572945e-07
1.956696e-05
1.5724383e-07
1.4598404e-07
1.934621e-05
1.5086895e-07
1.3718217e-07
1.9135969e-05
1.4492652e-07
1.2920881e-07
1.8935407e-05
1.3937906e-07
1.2196306e-07
1.8743783e-05
1.3419228e-07
1.1535762e-07
1.8560435e-05
1.2933508e-07
1.0931725e-07
1.8384766e-05
1.2477906e-07
1.0377716e-07
1.8216241e-05
1.2049851e-07
9.8681281e-08
1.8054377e-05
1.1647014e-07
9.3981307e-08
1.7898734e-05
1.1267298e-07
8.9635426e-08
1.7748917e-05
1.0908823e-07
8.5606985e-08
1.7604563e-05
1.0570006e-07
8.1862429e-08
1.7465345e-05
1.0249338e-07
7.8373274e-08
1.7330962e-05
9.945302e-08
7.5117011e-08
1.7201138e-05
9.656443e-08
7.2072745e-08
1.7075619e-05
9.3816662e-08
6.9221171e-08
1.695417e-05
9.1201137e-08
6.6545114e-08
1.6836577e-05
8.8709117e-08
6.4029537e-08
1.6722638e-05
8.6331964e-08
6.1661061e-08
1.661217e-05
8.4061771e-08
5.942771e-08
1.6505001e-05
8.1891538e-08
5.7318827e-08
1.640097e-05
7.981492e-08
5.5324812e-08
1.6299929e-05
7.7826145e-08
5.3437142e-08
1.620174e-05
7.5919865e-08
5.1647905e-08
1.6106272e-05
7.4091041e-08
4.9950099e-08
1.6013404e-05
7.2334978e-08
4.8337365e-08
1.5923022e-05
7.0647708e-08
4.680386e-08
1.5835019e-05
6.9025732e-08
4.5344247e-08
1.5749294e-05
6.7465545e-08
4.3953677e-08
1.5665753e-05
6.5963781e-08
4.2627693e-08
1.5584307e-05
6.4517358e-08
4.1362169e-08
1.5504871e-05
6.3123404e-08
4.0153351e-08
1.5427365e-05
6.1779298e-08
3.8997806e-08
1.5351716e-05
6.0482541e-08
3.7892276e-08
1.5277852e-05
5.9230822e-08
3.6833839e-08
1.5205705e-05
5.8021961e-08
3.5819735e-08
1.5135212e-05
5.6853988e-08
3.4847368e-08
1.5066313e-05
5.5724986e-08
3.3914348e-08
1.499895e-05
5.4633121e-08
3.3018413e-08
1.493307e-05
5.3576741e-08
3.2157415e-08
1.4868621e-05
5.255422e-08
3.1329432e-08
1.4805554e-05
5.1563982e-08
3.0532416e-08
1.4743823e-05
5.0604509e-08
2.9764681e-08
1.4683386e-05
4.9674309e-08
2.9024384e-08
1.4624199e-05
4.877181e-08
2.830987e-08
1.4566226e-05
4.7895447e-08
2.7619571e-08
1.4509431e-05
4.70435e-08
2.6952017e-08
1.4453778e-05
4.6214101e-08
2.6305747e-08
1.4399237e-05
4.540541e-08
2.5679877e-08
1.4345777e-05
4.4615714e-08
2.5073752e-08
1.4293367e-05
4.3844261e-08
2.4487716e-08
1.4241972e-05
4.3092879e-08
2.3923755e-08
1.4191548e-05
4.2369902e-08
2.3387164e-08
1.4142019e-05
4.1699315e-08
2.2889632e-08
1.4093249e-05
4.1141659e-08
2.2456649e-08
1.4044951e-05
4.0844615e-08
2.2146569e-08
1.3996485e-05
4.1169184e-08
2.2123018e-08
1.3946229e-05
4.3012315e-08
2.2985402e-08
1.389015e-05
4.8540258e-08
2.5565781e-08
6.3281552e-08
5.0000841e-08
0.00010603565
2.7876425e-06
6.4750379e-06
0.00010074799
4.4145413e-06
6.5685292e-06
9.5493515e-05
4.8594028e-06
6.1741158e-06
9.0256432e-05
4.930369e-06
5.9581921e-06
8.5101366e-05
4.8311767e-06
5.6908012e-06
8.0102875e-05
4.5561761e-06
5.3445981e-06
7.5322251e-05
4.1469521e-06
4.9614853e-06
7.0803266e-05
3.6678925e-06
4.5689837e-06
6.6576264e-05
3.1701903e-06
4.1811255e-06
6.2660725e-05
2.6900109e-06
3.8075976e-06
5.9065443e-05
2.2519319e-06
3.4554566e-06
5.5788936e-05
1.8697304e-06
3.1287958e-06
5.2820978e-05
1.5477473e-06
2.8291458e-06
5.014479e-05
1.2836302e-06
2.5563139e-06
4.7739304e-05
1.07123e-06
2.3091141e-06
4.5581183e-05
9.0281506e-07
2.0858661e-06
4.3646423e-05
7.7048781e-07
1.884709e-06
4.1911533e-05
6.6697373e-07
1.7037793e-06
4.0354306e-05
5.8598195e-07
1.541295e-06
3.8954268e-05
5.2230222e-07
1.3955849e-06
3.769288e-05
4.7175601e-07
1.265091e-06
3.6553576e-05
4.3107983e-07
1.1483634e-06
3.552169e-05
3.9778207e-07
1.0440533e-06
3.4584322e-05
3.6999879e-07
9.509083e-07
3.3730181e-05
3.4635981e-07
8.6777019e-07
3.2949411e-05
3.258776e-07
7.9356873e-07
3.2233419e-05
3.078405e-07
7.2733486e-07
3.1574711e-05
2.9172987e-07
6.6818105e-07
3.0966769e-05
2.7719266e-07
6.1530128e-07
3.0403928e-05
2.6398101e-07
5.6797019e-07
2.9881258e-05
2.5190847e-07
5.2554316e-07
2.9394455e-05
2.408271e-07
4.8745002e-07
2.8939761e-05
2.3062158e-07
4.5318326e-07
2.8513895e-05
2.2120152e-07
4.2229388e-07
2.8113985e-05
2.1249192e-07
3.9438676e-07
2.7737518e-05
2.0442792e-07
3.6911488e-07
2.7382285e-05
1.9695191e-07
3.4617381e-07
2.7046344e-05
1.9001177e-07
3.2529676e-07
2.6727982e-05
1.8355992e-07
3.0625044e-07
2.6425689e-05
1.7755275e-07
2.8883087e-07
2.6138123e-05
1.7195003e-07
2.7285984e-07
2.5864094e-05
1.6671515e-07
2.5818185e-07
2.5602546e-05
1.6181452e-07
2.4466091e-07
2.535253e-05
1.5721706e-07
2.3217763e-07
2.51132e-05
1.5289439e-07
2.2062726e-07
2.4883797e-05
1.4882098e-07
2.0991773e-07
2.4663634e-05
1.4497365e-07
1.9996811e-07
2.4452094e-05
1.4133184e-07
1.9070706e-07
2.4248615e-05
1.3787698e-07
1.8207151e-07
2.405269e-05
1.3459268e-07
1.740057e-07
2.3863854e-05
1.3146464e-07
1.6645989e-07
2.3681684e-05
1.284806e-07
1.5938925e-07
2.3505794e-05
1.2562921e-07
1.5275415e-07
2.3335829e-05
1.2289869e-07
1.4651971e-07
2.3171462e-05
1.2027634e-07
1.4065459e-07
2.3012394e-05
1.1775474e-07
1.3513021e-07
2.2858345e-05
1.153297e-07
1.2992043e-07
2.2709057e-05
1.1299537e-07
1.2500176e-07
2.2564291e-05
1.1074521e-07
1.203529e-07
2.2423824e-05
1.0857349e-07
1.1595461e-07
2.2287451e-05
1.0647545e-07
1.1178923e-07
2.2154978e-05
1.0444701e-07
1.0784081e-07
2.2026226e-05
1.0248422e-07
1.040946e-07
2.1901025e-05
1.0058353e-07
1.0053715e-07
2.1779218e-05
9.8741533e-08
9.7156153e-08
2.1660658e-05
9.6954878e-08
9.394027e-08
2.1545205e-05
9.5221262e-08
9.0879028e-08
2.1432729e-05
9.3538805e-08
8.7962775e-08
2.1323107e-05
9.1905303e-08
8.5182602e-08
2.1216222e-05
9.0318514e-08
8.2530164e-08
2.1111965e-05
8.8776412e-08
7.999787e-08
2.1010233e-05
8.7277116e-08
7.7578635e-08
2.0910927e-05
8.5818957e-08
7.5265864e-08
2.0813956e-05
8.4400349e-08
7.3053457e-08
2.0719232e-05
8.3019705e-08
7.0935678e-08
2.0626671e-05
8.1675652e-08
6.8907203e-08
2.0536195e-05
8.0366817e-08
6.696311e-08
2.0447729e-05
7.9091944e-08
6.5098752e-08
2.0361203e-05
7.7849825e-08
6.3309753e-08
2.0276548e-05
7.6639256e-08
6.1592034e-08
2.0193702e-05
7.5459018e-08
5.994175e-08
2.0112602e-05
7.4307969e-08
5.8355261e-08
2.0033193e-05
7.3184916e-08
5.682908e-08
1.9955419e-05
7.2088618e-08
5.5359963e-08
1.9879228e-05
7.1017617e-08
5.394481e-08
1.9804572e-05
6.9970446e-08
5.2580715e-08
1.9731406e-05
6.8945258e-08
5.1264808e-08
1.9659685e-05
6.7940111e-08
4.9994392e-08
1.9589371e-05
6.6953036e-08
4.8767033e-08
1.9520423e-05
6.5982339e-08
4.7580537e-08
1.9452807e-05
6.5028005e-08
4.6433096e-08
1.9386482e-05
6.4094112e-08
4.5323722e-08
1.9321404e-05
6.3194712e-08
4.4253076e-08
1.9257511e-05
6.2366331e-08
4.3225214e-08
1.9194705e-05
6.1695179e-08
4.2253155e-08
1.9132798e-05
6.1374096e-08
4.1377409e-08
1.9071394e-05
6.1822406e-08
4.0750666e-08
1.9009424e-05
6.3924723e-08
4.1057597e-08
1.8944661e-05
6.9304684e-08
4.3998837e-08
7.9170923e-08
7.4661529e-08
0.0001054937
1.9169871e-06
6.4880406e-06
0.00010005365
3.2729596e-06
6.5816334e-06
9.4926077e-05
3.8288995e-06
6.1580776e-06
8.9946373e-05
3.9838109e-06
5.9262629e-06
8.5163276e-05
3.9595077e-06
5.6547657e-06
8.0619137e-05
3.7899369e-06
5.3103784e-06
7.6329462e-05
3.5015547e-06
4.9350725e-06
7.230016e-05
3.1412013e-06
4.5559928e-06
6.8534206e-05
2.7514802e-06
4.1846641e-06
6.5032983e-05
2.3633493e-06
3.8278852e-06
6.1795789e-05
1.9984144e-06
3.490711e-06
5.8818843e-05
1.670376e-06
3.176301e-06
5.6094718e-05
1.3858295e-06
2.886043e-06
5.3612488e-05
1.1457945e-06
2.6200649e-06
5.1358373e-05
9.4764118e-07
2.3777043e-06
4.9316593e-05
7.8676785e-07
2.1578272e-06
4.7470246e-05
6.5779548e-07
1.9590391e-06
4.5802069e-05
5.5532542e-07
1.7798252e-06
4.4295042e-05
4.7437116e-07
1.6186378e-06
4.293283e-05
4.1056666e-07
1.473948e-06
4.1700078e-05
3.6023237e-07
1.3442759e-06
4.0582591e-05
3.2035741e-07
1.2282094e-06
3.956742e-05
2.8853735e-07
1.1244154e-06
3.8642881e-05
2.6289065e-07
1.0316467e-06
3.7798527e-05
2.419699e-07
9.4874402e-07
3.7025076e-05
2.2467706e-07
8.7465173e-07
3.6314324e-05
2.1018897e-07
8.0840409e-07
3.5659057e-05
1.9788605e-07
7.4911041e-07
3.5052961e-05
1.8731584e-07
6.9597283e-07
3.4490519e-05
1.7814872e-07
6.4827384e-07
3.3966922e-05
1.7013165e-07
6.0537438e-07
3.3477973e-05
1.6306726e-07
5.6670868e-07
3.3020016e-05
1.5680297e-07
5.3177543e-07
3.2589865e-05
1.5122051e-07
5.0013242e-07
3.218474e-05
1.462256e-07
4.7139135e-07
3.1802215e-05
1.4174071e-07
4.4521232e-07
3.1440168e-05
1.3770089e-07
4.2129809e-07
3.1096739e-05
1.3405092e-07
3.9938924e-07
3.0770297e-05
1.3074294e-07
3.7925956e-07
3.0459402e-05
1.2773515e-07
3.6071196e-07
3.0162787e-05
1.249909e-07
3.4357477e-07
2.9879325e-05
1.2247781e-07
3.276985e-07
2.960802e-05
1.2016733e-07
3.129527e-07
2.934798e-05
1.180338e-07
2.992235e-07
2.9098408e-05
1.1605462e-07
2.8641137e-07
2.885859e-05
1.1420983e-07
2.7442901e-07
2.8627882e-05
1.124819e-07
2.6319999e-07
2.8405701e-05
1.1085559e-07
2.5265687e-07
2.819152e-05
1.0931761e-07
2.4274021e-07
2.7984859e-05
1.0785648e-07
2.3339754e-07
2.7785279e-05
1.0646279e-07
2.2458211e-07
2.7592378e-05
1.0512871e-07
2.1625212e-07
2.740579e-05
1.0384736e-07
2.0837038e-07
2.7225174e-05
1.0261116e-07
2.0090361e-07
2.705022e-05
1.0140747e-07
1.9382258e-07
2.6880641e-05
1.0023382e-07
1.871004e-07
2.6716166e-05
9.9092332e-08
1.8071225e-07
2.6556546e-05
9.7980011e-08
1.746356e-07
2.6401548e-05
9.6892538e-08
1.688501e-07
2.6250957e-05
9.5827085e-08
1.6333741e-07
2.610457e-05
9.4781703e-08
1.5808045e-07
2.5962199e-05
9.3754731e-08
1.5306361e-07
2.5823666e-05
9.2744875e-08
1.482726e-07
2.5688804e-05
9.175102e-08
1.4369413e-07
2.5557458e-05
9.0771757e-08
1.3931599e-07
2.5429481e-05
8.9805191e-08
1.3512695e-07
2.5304734e-05
8.885145e-08
1.3111647e-07
2.5183087e-05
8.7911175e-08
1.2727466e-07
2.5064416e-05
8.6983926e-08
1.235924e-07
2.4948604e-05
8.6068895e-08
1.2006117e-07
2.4835542e-05
8.5165799e-08
1.16673e-07
2.4725124e-05
8.4274326e-08
1.1342045e-07
2.4617252e-05
8.3394278e-08
1.1029654e-07
2.4511832e-05
8.2525468e-08
1.0729479e-07
2.4408775e-05
8.1667748e-08
1.0440902e-07
2.4307997e-05
8.0820972e-08
1.0163345e-07
2.4209416e-05
7.9984997e-08
9.8962676e-08
2.4112956e-05
7.9159745e-08
9.6391542e-08
2.4018546e-05
7.8345018e-08
9.3915296e-08
2.3926115e-05
7.7540716e-08
9.1529313e-08
2.3835598e-05
7.674657e-08
8.9229283e-08
2.3746933e-05
7.5962329e-08
8.7011052e-08
2.366006e-05
7.5187658e-08
8.4870729e-08
2.3574922e-05
7.4421969e-08
8.280455e-08
2.3491466e-05
7.3664653e-08
8.0808934e-08
2.3409641e-05
7.2914604e-08
7.8880376e-08
2.33294e-05
7.2170685e-08
7.7015499e-08
2.3250698e-05
7.143133e-08
7.5210994e-08
2.3173492e-05
7.0694894e-08
7.3463655e-08
2.3097745e-05
6.9960217e-08
7.1770056e-08
2.3023418e-05
6.9227948e-08
7.012702e-08
2.2950477e-05
6.8503509e-08
6.8531169e-08
2.2878889e-05
6.7802873e-08
6.6979709e-08
2.2808619e-05
6.7165048e-08
6.5471576e-08
2.2739625e-05
6.6675259e-08
6.4013362e-08
2.267185e-05
6.6507076e-08
6.2642325e-08
2.2605149e-05
6.6990741e-08
6.1532397e-08
2.2538888e-05
6.8686025e-08
6.1499905e-08
2.2471121e-05
7.2226935e-08
6.4845126e-08
7.672281e-08
9.8461302e-08
0.0001051979
1.3340884e-06
6.4961221e-06
9.9496561e-05
2.3731022e-06
6.6011947e-06
9.4262459e-05
2.9019224e-06
6.1610799e-06
8.9251186e-05
3.0856642e-06
5.9094196e-06
8.4493498e-05
3.0947347e-06
5.6224614e-06
8.0033635e-05
2.9846657e-06
5.2651341e-06
7.5876907e-05
2.7790155e-06
4.8792667e-06
7.2014635e-05
2.5106844e-06
4.4927894e-06
6.8436293e-05
2.2128728e-06
4.1169489e-06
6.5131387e-05
1.9107259e-06
3.7575291e-06
6.208941e-05
1.6217321e-06
3.4186596e-06
5.9299432e-05
1.3573878e-06
3.1029661e-06
5.6749589e-05
1.1240344e-06
2.8116387e-06
5.4426788e-05
9.2377947e-07
2.5448158e-06
5.2316754e-05
7.5572797e-07
2.3019466e-06
5.0404313e-05
6.1717855e-07
2.0820302e-06
4.8673788e-05
5.045435e-07
1.8837772e-06
4.7109414e-05
4.1397179e-07
1.7057274e-06
4.5695713e-05
3.4173649e-07
1.5463363e-06
4.4417792e-05
2.8445147e-07
1.4040359e-06
4.3261575e-05
2.3917113e-07
1.2772781e-06
4.2213953e-05
2.0341504e-07
1.1645652e-06
4.1262871e-05
1.7514741e-07
1.0644719e-06
4.039737e-05
1.5273235e-07
9.7565901e-07
3.9607583e-05
1.3487529e-07
8.9688144e-07
3.8884688e-05
1.2055566e-07
8.270164e-07
3.8220848e-05
1.0901091e-07
7.6501855e-07
3.7609155e-05
9.9633846e-08
7.0994485e-07
3.7043542e-05
9.1977471e-08
6.6095087e-07
3.6518702e-05
8.5705798e-08
6.1728287e-07
3.6030009e-05
8.0552393e-08
5.782731e-07
3.5573433e-05
7.6308249e-08
5.4333413e-07
3.5145475e-05
7.2811236e-08
5.1195029e-07
3.4743091e-05
6.9934086e-08
4.8367022e-07
3.4363641e-05
6.7575441e-08
4.5810066e-07
3.4004828e-05
6.5652887e-08
4.3489995e-07
3.3664659e-05
6.4098583e-08
4.1377211e-07
3.3341393e-05
6.2855931e-08
3.9446095e-07
3.3033513e-05
6.1877026e-08
3.767453e-07
3.2739693e-05
6.112107e-08
3.6043423e-07
3.2458768e-05
6.0553081e-08
3.4536326e-07
3.2189712e-05
6.0142655e-08
3.3139054e-07
3.1931622e-05
5.9863654e-08
3.1839375e-07
3.1683696e-05
5.9693109e-08
3.0626734e-07
3.1445219e-05
5.9611194e-08
2.9492011e-07
3.1215555e-05
5.9600631e-08
2.8427318e-07
3.0994132e-05
5.9646533e-08
2.7425808e-07
3.0780436e-05
5.9736147e-08
2.6481539e-07
3.0574002e-05
5.9858653e-08
2.5589332e-07
3.0374407e-05
6.0004954e-08
2.4744662e-07
3.0181267e-05
6.0167652e-08
2.3943544e-07
2.9994229e-05
6.0341261e-08
2.3182486e-07
2.9812971e-05
6.0521792e-08
2.2458373e-07
2.9637193e-05
6.0704452e-08
2.1768457e-07
2.9466629e-05
6.0867279e-08
2.1110457e-07
2.9301024e-05
6.1017003e-08
2.048218e-07
2.914014e-05
6.1160853e-08
1.9881572e-07
2.8983756e-05
6.129494e-08
1.9306841e-07
2.8831669e-05
6.1415456e-08
1.8756388e-07
2.8683688e-05
6.1520922e-08
1.8228763e-07
2.8539633e-05
6.1610547e-08
1.7722635e-07
2.8399336e-05
6.1683783e-08
1.7236783e-07
2.8262639e-05
6.1740488e-08
1.6770088e-07
2.8129394e-05
6.1780672e-08
1.6321518e-07
2.7999461e-05
6.1803884e-08
1.5890124e-07
2.7872709e-05
6.1807349e-08
1.5475037e-07
2.7749012e-05
6.1793543e-08
1.5075442e-07
2.7628253e-05
6.176481e-08
1.4690558e-07
2.7510319e-05
6.1721001e-08
1.4319659e-07
2.7395105e-05
6.166211e-08
1.3962082e-07
2.728251e-05
6.1588618e-08
1.3617197e-07
2.7172439e-05
6.1501089e-08
1.3284421e-07
2.7064802e-05
6.1399991e-08
1.2963192e-07
2.6959511e-05
6.1285946e-08
1.2652992e-07
2.6856486e-05
6.1159522e-08
1.2353324e-07
2.6755649e-05
6.102128e-08
1.2063732e-07
2.6656924e-05
6.0871846e-08
1.1783767e-07
2.6560242e-05
6.0711687e-08
1.1513012e-07
2.6465535e-05
6.0541382e-08
1.1251076e-07
2.6372738e-05
6.0361332e-08
1.0997577e-07
2.6281791e-05
6.0171926e-08
1.0752158e-07
2.6192636e-05
5.9973537e-08
1.0514469e-07
2.6105215e-05
5.9766314e-08
1.0284183e-07
2.6019477e-05
5.955025e-08
1.0060973e-07
2.5935371e-05
5.9325166e-08
9.844529e-08
2.585285e-05
5.909048e-08
9.6345396e-08
2.5771868e-05
5.8845518e-08
9.4306925e-08
2.5692384e-05
5.8589009e-08
9.2326699e-08
2.5614357e-05
5.8319798e-08
9.040144e-08
2.5537753e-05
5.803707e-08
8.8527297e-08
2.5462539e-05
5.7741616e-08
8.6700206e-08
2.5388689e-05
5.7438394e-08
8.4915179e-08
2.5316184e-05
5.7141409e-08
8.3166632e-08
2.5245017e-05
5.688257e-08
8.1449631e-08
2.51752e-05
5.6726031e-08
7.9765822e-08
2.510677e-05
5.6787906e-08
7.8149182e-08
2.5039729e-05
5.7251588e-08
7.6780978e-08
2.4973573e-05
5.8330925e-08
7.6510235e-08
2.4906079e-05
5.9989498e-08
7.9732181e-08
6.0715021e-08
1.1287823e-07
0.00010503672
9.0789372e-07
6.5005614e-06
9.9140653e-05
1.6524914e-06
6.6166801e-06
9.3788329e-05
2.0825242e-06
6.1717217e-06
8.8708526e-05
2.2549373e-06
5.91053e-06
8.3909682e-05
2.278404e-06
5.6151748e-06
7.9437109e-05
2.2074821e-06
5.2497564e-06
7.5296201e-05
2.0645348e-06
4.8553893e-06
7.1474034e-05
1.8722543e-06
4.4605969e-06
6.7955013e-05
1.6547667e-06
4.0771269e-06
6.4723621e-05
1.4313505e-06
3.7107669e-06
6.1764423e-05
1.2154297e-06
3.3655007e-06
5.9062056e-05
1.015864e-06
3.0438911e-06
5.6601108e-05
8.3782743e-07
2.7471548e-06
5.4365944e-05
6.8344649e-07
2.475497e-06
5.2340648e-05
5.5258528e-07
2.2284383e-06
5.0509125e-05
4.4366546e-07
2.0050361e-06
4.8855299e-05
3.5433455e-07
1.8040352e-06
4.7363353e-05
2.8193592e-07
1.6239821e-06
4.6017963e-05
2.2381346e-07
1.4633127e-06
4.4804502e-05
1.7749381e-07
1.320418e-06
4.3709199e-05
1.407809e-07
1.1936935e-06
4.2719248e-05
1.1179158e-07
1.081575e-06
4.1822875e-05
8.8954539e-08
9.8256581e-07
4.1009364e-05
7.0987967e-08
8.9525472e-07
4.0269054e-05
5.6861797e-08
8.1832383e-07
3.9593306e-05
4.5719093e-08
7.5058476e-07
3.8974405e-05
3.6977861e-08
6.9093437e-07
3.8405585e-05
3.0067381e-08
6.3838633e-07
3.7880869e-05
2.4650845e-08
5.9204239e-07
3.7395029e-05
2.0439988e-08
5.5110604e-07
3.6943514e-05
1.7190258e-08
5.1487715e-07
3.6522366e-05
1.4716725e-08
4.8273956e-07
3.6128148e-05
1.2874754e-08
4.5415389e-07
3.5757883e-05
1.1549894e-08
4.286494e-07
3.5408991e-05
1.0650733e-08
4.0581703e-07
3.5079238e-05
1.0103602e-08
3.8530225e-07
3.4766689e-05
9.8482485e-09
3.6679878e-07
3.4469668e-05
9.8350973e-09
3.5004234e-07
3.4186716e-05
1.0022928e-08
3.3480555e-07
3.3916567e-05
1.0377025e-08
3.2089286e-07
3.3658116e-05
1.0868064e-08
3.0813658e-07
3.3410395e-05
1.1470972e-08
2.9639282e-07
3.3172556e-05
1.2164251e-08
2.8553825e-07
3.2943852e-05
1.2929324e-08
2.7546719e-07
3.2723625e-05
1.3750204e-08
2.6608894e-07
3.2511286e-05
1.4613102e-08
2.5732574e-07
3.2306316e-05
1.5506235e-08
2.4911068e-07
3.2108246e-05
1.64196e-08
2.4138621e-07
3.1916658e-05
1.7344644e-08
2.3410267e-07
3.1731171e-05
1.827434e-08
2.2721711e-07
3.1551444e-05
1.9203205e-08
2.2069213e-07
3.1377162e-05
2.0127755e-08
2.1449508e-07
3.1208038e-05
2.1048645e-08
2.0859679e-07
3.10438e-05
2.197277e-08
2.0297056e-07
3.0884232e-05
2.2827819e-08
1.9760737e-07
3.0729103e-05
2.3662969e-08
1.9248227e-07
3.05782e-05
2.4490018e-08
1.8757381e-07
3.0431331e-05
2.5296297e-08
1.8286766e-07
3.0288318e-05
2.6077979e-08
1.7835076e-07
3.0148994e-05
2.6834316e-08
1.7401108e-07
3.0013202e-05
2.7564704e-08
1.6983752e-07
2.9880797e-05
2.8268979e-08
1.6582023e-07
2.975164e-05
2.8947469e-08
1.6195014e-07
2.96256e-05
2.9600759e-08
1.5821897e-07
2.9502557e-05
3.0228556e-08
1.5461921e-07
2.9382396e-05
3.0823584e-08
1.5114465e-07
2.9265007e-05
3.1393127e-08
1.4778878e-07
2.9150287e-05
3.1939586e-08
1.4454537e-07
2.9038137e-05
3.2461865e-08
1.4140899e-07
2.8928465e-05
3.2960072e-08
1.3837458e-07
2.8821181e-05
3.3434728e-08
1.354375e-07
2.8716203e-05
3.3886392e-08
1.3259327e-07
2.8613449e-05
3.4315581e-08
1.2983786e-07
2.8512845e-05
3.4722895e-08
1.2716738e-07
2.8414317e-05
3.5108981e-08
1.2457813e-07
2.8317797e-05
3.5474437e-08
1.2206678e-07
2.8223219e-05
3.5819903e-08
1.1963006e-07
2.813052e-05
3.6145926e-08
1.1726489e-07
2.803964e-05
3.6453055e-08
1.1496837e-07
2.7950522e-05
3.6741894e-08
1.1273772e-07
2.7863111e-05
3.7012806e-08
1.1057027e-07
2.7777354e-05
3.7266264e-08
1.0846342e-07
2.7693204e-05
3.7502485e-08
1.0641473e-07
2.761061e-05
3.7721599e-08
1.0442174e-07
2.752953e-05
3.7923578e-08
1.02482e-07
2.744992e-05
3.8108013e-08
1.0059307e-07
2.7371738e-05
3.8274292e-08
9.8752289e-08
2.7294949e-05
3.842153e-08
9.6956887e-08
2.7219516e-05
3.8548741e-08
9.5203633e-08
2.714541e-05
3.8655134e-08
9.3488616e-08
2.7072603e-05
3.874111e-08
9.1806964e-08
2.7001079e-05
3.8810257e-08
9.0152307e-08
2.6930832e-05
3.8872141e-08
8.8516592e-08
2.6861876e-05
3.89474e-08
8.6890538e-08
2.679426e-05
3.9073546e-08
8.5269204e-08
2.6728065e-05
3.9306942e-08
8.367596e-08
2.6663337e-05
3.9708346e-08
8.2271178e-08
2.659956e-05
4.0271984e-08
8.1836179e-08
2.6534295e-05
4.0698027e-08
8.4555754e-08
3.9620862e-08
1.1507131e-07
0.00010494757
5.681108e-07
6.5033076e-06
9.8925416e-05
1.0462983e-06
6.6283517e-06
9.3480449e-05
1.3439844e-06
6.1835065e-06
8.8341777e-05
1.4751323e-06
5.9184763e-06
8.3502084e-05
1.4993911e-06
5.6187065e-06
7.9004057e-05
1.4572411e-06
5.2482679e-06
7.4853978e-05
1.3667382e-06
4.8478757e-06
7.1037378e-05
1.2423973e-06
4.4464569e-06
6.7536063e-05
1.0997693e-06
4.0563128e-06
6.4331998e-05
9.5192359e-07
3.6834909e-06
6.1407318e-05
8.0805756e-07
3.3320524e-06
5.8744339e-05
6.7422204e-07
3.0046209e-06
5.6325632e-05
5.5404398e-07
2.7024907e-06
5.4133973e-05
4.4916747e-07
2.4259383e-06
5.2152298e-05
3.59724e-07
2.174536e-06
5.0363747e-05
2.8484511e-07
1.9473718e-06
4.875178e-05
2.2310001e-07
1.7432015e-06
4.7300339e-05
1.7281168e-07
1.5605647e-06
4.5994012e-05
1.3226571e-07
1.3978747e-06
4.4818177e-05
9.9840039e-08
1.2534891e-06
4.3759121e-05
7.4075619e-08
1.1257614e-06
4.2804123e-05
5.3707641e-08
1.0130814e-06
4.1941503e-05
3.7671189e-08
9.1390375e-07
4.1160627e-05
2.5096443e-08
8.2676734e-07
4.0451891e-05
1.5294184e-08
7.5030388e-07
3.980679e-05
7.5281754e-09
6.8329175e-07
3.9217543e-05
1.6727514e-09
6.2455201e-07
3.8677513e-05
-3.0331038e-09
5.7313081e-07
3.8180739e-05
-6.6486699e-09
5.2807353e-07
3.7722004e-05
-9.3594669e-09
4.885345e-07
3.7296777e-05
-1.1371754e-08
4.5378925e-07
3.6901112e-05
-1.2818197e-08
4.2319913e-07
3.6531588e-05
-1.3805301e-08
3.9620481e-07
3.6185236e-05
-1.4417494e-08
3.7231875e-07
3.5859491e-05
-1.4721912e-08
3.5111776e-07
3.5552132e-05
-1.477263e-08
3.3223578e-07
3.5261237e-05
-1.4613933e-08
3.1535728e-07
3.4985143e-05
-1.4282157e-08
3.0021089e-07
3.472241e-05
-1.3807696e-08
2.8656375e-07
3.4471787e-05
-1.3215883e-08
2.7421631e-07
3.4232185e-05
-1.2528186e-08
2.6299768e-07
3.4002657e-05
-1.1762803e-08
2.5276175e-07
3.3782373e-05
-1.0935228e-08
2.4338335e-07
3.3570606e-05
-1.0058773e-08
2.3475556e-07
3.3366714e-05
-9.1447207e-09
2.2678672e-07
3.3170131e-05
-8.2028255e-09
2.1939835e-07
3.2980356e-05
-7.2412385e-09
2.1252302e-07
3.279694e-05
-6.2668984e-09
2.0610283e-07
3.2619482e-05
-5.2855585e-09
2.0008784e-07
3.2447623e-05
-4.3018186e-09
1.9443476e-07
3.228104e-05
-3.3190656e-09
1.8910586e-07
3.2119438e-05
-2.3383278e-09
1.8406734e-07
3.1962554e-05
-1.3530666e-09
1.7928646e-07
3.1810075e-05
-2.7634067e-10
1.7472768e-07
3.1661878e-05
5.8584275e-10
1.7043904e-07
3.1517732e-05
1.4356271e-09
1.6637292e-07
3.1377429e-05
2.3038242e-09
1.6248958e-07
3.1240792e-05
3.1586482e-09
1.5877487e-07
3.1107656e-05
3.996979e-09
1.5521718e-07
3.0977867e-05
4.8171683e-09
1.5180545e-07
3.0851284e-05
5.6179628e-09
1.4852967e-07
3.0727774e-05
6.3990305e-09
1.4538078e-07
3.0607209e-05
7.1609233e-09
1.4235054e-07
3.0489473e-05
7.9059181e-09
1.3943122e-07
3.037445e-05
8.6357381e-09
1.3661581e-07
3.0262049e-05
9.3206581e-09
1.3390397e-07
3.0152163e-05
9.9938175e-09
1.3128566e-07
3.0044697e-05
1.0650387e-08
1.2875513e-07
2.9939564e-05
1.1286744e-08
1.2630826e-07
2.983668e-05
1.1903197e-08
1.2394084e-07
2.9735965e-05
1.250016e-08
1.2164884e-07
2.9637345e-05
1.3077895e-08
1.1942844e-07
2.9540748e-05
1.3636744e-08
1.1727617e-07
2.9446105e-05
1.4177018e-08
1.1518885e-07
2.9353352e-05
1.4699188e-08
1.1316338e-07
2.9262425e-05
1.5203557e-08
1.1119701e-07
2.9173268e-05
1.5690475e-08
1.0928709e-07
2.9085822e-05
1.6160362e-08
1.0743108e-07
2.9000035e-05
1.6613563e-08
1.0562664e-07
2.8915855e-05
1.7050379e-08
1.0387151e-07
2.8833233e-05
1.74711e-08
1.0216362e-07
2.8752123e-05
1.7875949e-08
1.005008e-07
2.8672479e-05
1.8265103e-08
9.8881089e-08
2.8594259e-05
1.8638546e-08
9.7302469e-08
2.8517424e-05
1.8996241e-08
9.5762956e-08
2.8441934e-05
1.9337832e-08
9.4260356e-08
2.8367753e-05
1.9662789e-08
9.2792331e-08
2.8294848e-05
1.9970486e-08
9.1356277e-08
2.8223187e-05
2.0260018e-08
8.9948885e-08
2.8152746e-05
2.05307e-08
8.8565936e-08
2.8083503e-05
2.0782643e-08
8.7201796e-08
2.8015447e-05
2.1017529e-08
8.5848662e-08
2.7948582e-05
2.1240702e-08
8.4495842e-08
2.7882937e-05
2.1462709e-08
8.3129491e-08
2.7818574e-05
2.1699974e-08
8.1736512e-08
2.7755588e-05
2.1969269e-08
8.032435e-08
2.7694014e-05
2.2266168e-08
7.9016064e-08
2.7633299e-05
2.2506261e-08
7.8480661e-08
2.7571004e-05
2.2393407e-08
8.059945e-08
2.0993079e-08
1.0779945e-07
0.00010489986
2.7443375e-07
6.5049155e-06
9.8802772e-05
5.0716633e-07
6.6362236e-06
9.329591e-05
6.5854974e-07
6.1922972e-06
8.8116302e-05
7.2902545e-07
5.9257148e-06
8.3248198e-05