/*--------------------------------*- C++ -*----------------------------------*\
  =========                 |
  \\      /  F ield         | OpenFOAM: The Open Source CFD Toolbox
   \\    /   O peration     | Website:  https://openfoam.org
    \\  /    A nd           | Version:  7
     \\/     M anipulation  |
\*---------------------------------------------------------------------------*/
FoamFile
{
    version     2.0;
    format      ascii;
    class       volVectorField;
    location    "700/water";
    object      U;
}
// * * * * * * * * * * * * * * * * * * * * * * * * * * * * * * * * * * * * * //

dimensions      [0 1 -1 0 0 0 0];

internalField   nonuniform List<vector> 
54000
(
(0.0090020934 0.00020305973 0.00020444027)
(0.0083186447 0.00023622738 0.00023904411)
(0.0073695241 0.00021363852 0.00021763527)
(0.0063566114 0.00018488016 0.00018965819)
(0.0054486673 0.00015530836 0.00016048633)
(0.0046741594 0.00012529952 0.00013052937)
(0.0040193038 9.7052611e-05 0.00010203017)
(0.0034740067 7.2578999e-05 7.7073287e-05)
(0.0030302461 5.2876126e-05 5.6738328e-05)
(0.0026757323 3.806815e-05 4.1216512e-05)
(0.0023947254 2.7637704e-05 3.003714e-05)
(0.0021713898 2.0689034e-05 2.2336508e-05)
(0.0019919695 1.623616e-05 1.7152703e-05)
(0.0018455015 1.3416235e-05 1.3643172e-05)
(0.0017237326 1.1582489e-05 1.1179122e-05)
(0.0016206928 1.0304892e-05 9.3455813e-06)
(0.0015321593 9.3257908e-06 7.8957157e-06)
(0.0014551546 8.5052955e-06 6.6953103e-06)
(0.0013875459 7.7746333e-06 5.6760568e-06)
(0.0013277612 7.1034281e-06 4.8034861e-06)
(0.001274601 6.4798503e-06 4.0581562e-06)
(0.0012271179 5.8999451e-06 3.4261575e-06)
(0.0011845424 5.3625297e-06 2.8950713e-06)
(0.001146235 4.8670213e-06 2.4526305e-06)
(0.0011116558 4.4125999e-06 2.0869768e-06)
(0.0010803434 3.9980128e-06 1.786745e-06)
(0.0010519002 3.6214603e-06 1.541613e-06)
(0.0010259819 3.2805935e-06 1.342186e-06)
(0.001002289 2.9733955e-06 1.1797302e-06)
(0.00098056199 2.6979492e-06 1.0463193e-06)
(0.00096057572 2.4519213e-06 9.3658996e-07)
(0.00094213242 2.232567e-06 8.4693445e-07)
(0.00092505792 2.0373867e-06 7.7316659e-07)
(0.00090920047 1.8640904e-06 7.1184246e-07)
(0.00089442818 1.7104629e-06 6.6046706e-07)
(0.0008806259 1.5743832e-06 6.1707372e-07)
(0.00086769295 1.4538617e-06 5.8005261e-07)
(0.00085554128 1.3470711e-06 5.4811459e-07)
(0.00084409387 1.2523494e-06 5.2023872e-07)
(0.00083328322 1.1681977e-06 4.9562874e-07)
(0.00082305015 1.0932619e-06 4.7365312e-07)
(0.00081334267 1.0262307e-06 4.5378284e-07)
(0.00080411486 9.658593e-07 4.3554445e-07)
(0.00079532615 9.1131174e-07 4.1865111e-07)
(0.0007869407 8.6191701e-07 4.0290662e-07)
(0.00077892675 8.1708251e-07 3.8816813e-07)
(0.00077125603 7.7627627e-07 3.7432094e-07)
(0.0007639033 7.3902592e-07 3.6127669e-07)
(0.00075684598 7.0491556e-07 3.4896381e-07)
(0.00075006373 6.7357595e-07 3.3733184e-07)
(0.00074353822 6.4469436e-07 3.2633705e-07)
(0.00073725294 6.1802585e-07 3.1581883e-07)
(0.00073119314 5.9334774e-07 3.0574342e-07)
(0.00072534528 5.7041938e-07 2.9621088e-07)
(0.00071969687 5.4902414e-07 2.8716703e-07)
(0.00071423653 5.2901383e-07 2.7854283e-07)
(0.00070895386 5.102737e-07 2.7031131e-07)
(0.00070383928 4.9268747e-07 2.6244846e-07)
(0.00069888397 4.7614471e-07 2.5493215e-07)
(0.00069407976 4.6054996e-07 2.4774321e-07)
(0.00068941911 4.458217e-07 2.4086436e-07)
(0.00068489502 4.3188533e-07 2.3427612e-07)
(0.00068050098 4.1867948e-07 2.27964e-07)
(0.00067623091 4.0614624e-07 2.2191229e-07)
(0.00067207915 3.9423418e-07 2.1610631e-07)
(0.00066804042 3.8289745e-07 2.1053176e-07)
(0.00066410976 3.7209529e-07 2.0517774e-07)
(0.00066028251 3.6179521e-07 2.0003239e-07)
(0.00065655429 3.5196212e-07 1.9508221e-07)
(0.00065292099 3.4256913e-07 1.9031852e-07)
(0.00064937872 3.3358628e-07 1.8572804e-07)
(0.00064592384 3.2498871e-07 1.8130633e-07)
(0.00064255289 3.1675192e-07 1.770405e-07)
(0.00063926261 3.0885637e-07 1.7292465e-07)
(0.00063604992 3.0128278e-07 1.6895141e-07)
(0.00063291192 2.9401267e-07 1.6511137e-07)
(0.00062984583 2.870313e-07 1.613984e-07)
(0.00062684904 2.803218e-07 1.5780316e-07)
(0.00062391907 2.7387092e-07 1.5432056e-07)
(0.00062105358 2.6766615e-07 1.5094214e-07)
(0.00061825035 2.6169492e-07 1.4766139e-07)
(0.00061550727 2.5594634e-07 1.4446868e-07)
(0.00061282235 2.5040689e-07 1.4135913e-07)
(0.00061019373 2.4506871e-07 1.3832412e-07)
(0.00060761965 2.3991867e-07 1.3535631e-07)
(0.00060509845 2.3494645e-07 1.324487e-07)
(0.00060262862 2.3013421e-07 1.2959732e-07)
(0.00060020873 2.254713e-07 1.2680299e-07)
(0.00059783744 2.2093141e-07 1.2407488e-07)
(0.00059551348 2.1649904e-07 1.2143309e-07)
(0.00059323555 2.1214893e-07 1.1892821e-07)
(0.00059100214 2.0787201e-07 1.1666284e-07)
(0.00058881114 2.0369137e-07 1.148301e-07)
(0.00058665898 1.9973146e-07 1.1382052e-07)
(0.00058453869 1.9638412e-07 1.1441144e-07)
(0.00058243501 1.9487274e-07 1.1837338e-07)
(0.00058031396 1.997748e-07 1.3094351e-07)
(0.0005781161 2.2258511e-07 1.6397595e-07)
(0.00057566369 1.9706843e-07 1.5080568e-07)
(0.000569062 7.8896394e-07 7.5322604e-07)
(0.0095316863 0.0003313754 0.00022336697)
(0.0092716504 0.00041105942 0.00027052342)
(0.0087756651 0.00040317187 0.00026060062)
(0.0081527518 0.00038218754 0.00024252081)
(0.0075302151 0.00035309574 0.00022101124)
(0.0069425889 0.00031541062 0.00019648834)
(0.006391209 0.00027309198 0.00017102969)
(0.0058791845 0.00023030694 0.00014652546)
(0.0054120202 0.00019001854 0.00012410997)
(0.0049926512 0.00015423459 0.00010436627)
(0.004620592 0.00012408347 8.7479017e-05)
(0.0042931332 9.9809402e-05 7.3327496e-05)
(0.0040063965 8.0956424e-05 6.1601504e-05)
(0.0037559538 6.667221e-05 5.1918794e-05)
(0.0035372541 5.5985801e-05 4.3907444e-05)
(0.003345947 4.7992056e-05 3.7246645e-05)
(0.0031780884 4.194171e-05 3.1677529e-05)
(0.0030302311 3.7262445e-05 2.6997921e-05)
(0.0028994324 3.3540995e-05 2.3051138e-05)
(0.0027832152 3.0490243e-05 1.9714593e-05)
(0.0026795075 2.7915735e-05 1.6890543e-05)
(0.0025865783 2.5687841e-05 1.4499381e-05)
(0.002502978 2.3720892e-05 1.2475015e-05)
(0.0024274871 2.1958431e-05 1.0761725e-05)
(0.0023590736 2.0362993e-05 9.3122326e-06)
(0.0022968589 1.8909454e-05 8.0861286e-06)
(0.0022400906 1.7580768e-05 7.0489621e-06)
(0.0021881216 1.6364898e-05 6.1714975e-06)
(0.0021403932 1.5251964e-05 5.4283138e-06)
(0.0020964214 1.4233849e-05 4.7973507e-06)
(0.0020557868 1.3303041e-05 4.2604826e-06)
(0.0020181236 1.2451986e-05 3.8027041e-06)
(0.0019831119 1.1673908e-05 3.4109604e-06)
(0.0019504718 1.0962757e-05 3.0744203e-06)
(0.0019199589 1.0312855e-05 2.78426e-06)
(0.0018913593 9.7188341e-06 2.5331807e-06)
(0.0018644851 9.1756454e-06 2.3150739e-06)
(0.0018391716 8.6785729e-06 2.1248314e-06)
(0.0018152735 8.2232425e-06 1.9581837e-06)
(0.0017926629 7.8056203e-06 1.8115685e-06)
(0.0017712268 7.4219986e-06 1.6820115e-06)
(0.001750865 7.0689387e-06 1.5670699e-06)
(0.0017314886 6.7432693e-06 1.4647425e-06)
(0.0017130186 6.4422737e-06 1.3732752e-06)
(0.0016953848 6.1635562e-06 1.291159e-06)
(0.0016785241 5.904977e-06 1.2171189e-06)
(0.00166238 5.664609e-06 1.1500841e-06)
(0.0016469019 5.4407247e-06 1.0891488e-06)
(0.001632044 5.2317783e-06 1.0335528e-06)
(0.0016177649 5.0363867e-06 9.826543e-07)
(0.0016040271 4.8533233e-06 9.3589367e-07)
(0.0015907965 4.6815634e-06 8.9273781e-07)
(0.0015780424 4.5201572e-06 8.5278674e-07)
(0.0015657364 4.3681547e-06 8.1577111e-07)
(0.0015538526 4.2246827e-06 7.8138562e-07)
(0.0015423672 4.0890599e-06 7.4934586e-07)
(0.0015312583 3.9607297e-06 7.1941289e-07)
(0.0015205058 3.8391524e-06 6.9138718e-07)
(0.0015100909 3.7238126e-06 6.650945e-07)
(0.0014999963 3.6142435e-06 6.4038018e-07)
(0.0014902061 3.510031e-06 6.1710886e-07)
(0.0014807053 3.4107989e-06 5.9515967e-07)
(0.00147148 3.3162117e-06 5.7442835e-07)
(0.0014625175 3.2259591e-06 5.5481485e-07)
(0.0014538055 3.1397547e-06 5.3623496e-07)
(0.0014453328 3.057335e-06 5.1861287e-07)
(0.0014370889 2.9784706e-06 5.0187836e-07)
(0.0014290637 2.9029595e-06 4.8596751e-07)
(0.001421248 2.8306028e-06 4.7082293e-07)
(0.001413633 2.7612182e-06 4.5639274e-07)
(0.0014062104 2.6946333e-06 4.4262839e-07)
(0.0013989723 2.6306911e-06 4.2948713e-07)
(0.0013919116 2.5692456e-06 4.169305e-07)
(0.0013850212 2.5101631e-06 4.049203e-07)
(0.0013782945 2.4533183e-06 3.9342455e-07)
(0.0013717253 2.3985937e-06 3.8241169e-07)
(0.0013653078 2.345884e-06 3.7185183e-07)
(0.0013590364 2.2950861e-06 3.617178e-07)
(0.0013529058 2.2461044e-06 3.5198403e-07)
(0.001346911 2.1988517e-06 3.4262538e-07)
(0.0013410472 2.1532431e-06 3.3362107e-07)
(0.0013353099 2.1091983e-06 3.2494472e-07)
(0.001329695 2.0666376e-06 3.1657908e-07)
(0.0013241983 2.0254885e-06 3.085006e-07)
(0.001318816 1.9856724e-06 3.0069039e-07)
(0.0013135446 1.9471137e-06 2.9313083e-07)
(0.0013083808 1.9097258e-06 2.8580663e-07)
(0.0013033213 1.8734252e-06 2.7870166e-07)
(0.0012983632 1.8381149e-06 2.7181597e-07)
(0.0012935038 1.8037149e-06 2.6515376e-07)
(0.0012887402 1.77017e-06 2.5874335e-07)
(0.0012840698 1.7375337e-06 2.5265024e-07)
(0.0012794889 1.7061221e-06 2.4701453e-07)
(0.0012749925 1.6769098e-06 2.4211336e-07)
(0.001270572 1.6524681e-06 2.3851916e-07)
(0.0012662098 1.6393322e-06 2.3766031e-07)
(0.0012618709 1.6545766e-06 2.4458167e-07)
(0.0012574959 1.7463723e-06 2.7712473e-07)
(0.0012529717 2.0376705e-06 2.6526367e-07)
(0.0012433358 2.9514818e-06 1.3525327e-06)
(0.0095221617 0.00021179965 0.00022180581)
(0.009269783 0.00029872516 0.00026628967)
(0.0088657772 0.00031669844 0.00025526743)
(0.0083755729 0.000317438 0.00023864265)
(0.0078888426 0.00030841043 0.00021987851)
(0.0074276349 0.00028848207 0.00019850458)
(0.006988258 0.00026048391 0.00017617916)
(0.0065698164 0.00022855168 0.00015444521)
(0.0061756011 0.00019596771 0.00013413534)
(0.0058087146 0.00016504408 0.00011567593)
(0.0054706295 0.00013728621 9.9270839e-05)
(0.0051615551 0.00011345265 8.4947832e-05)
(0.0048808654 9.3684508e-05 7.2600738e-05)
(0.0046272998 7.7712988e-05 6.2044901e-05)
(0.0043991196 6.5057027e-05 5.3064543e-05)
(0.0041942886 5.5163888e-05 4.544363e-05)
(0.0040106431 4.7493347e-05 3.8982754e-05)
(0.0038460219 4.1561377e-05 3.3506381e-05)
(0.0036983537 3.6958192e-05 2.8864074e-05)
(0.0035657105 3.3351174e-05 2.4928486e-05)
(0.0034463343 3.0479501e-05 2.1592135e-05)
(0.003338646 2.8144768e-05 1.8764099e-05)
(0.003241243 2.6200155e-05 1.6367138e-05)
(0.0031528887 2.4539751e-05 1.4335369e-05)
(0.0030724986 2.3088866e-05 1.261249e-05)
(0.0029991252 2.1796112e-05 1.1150135e-05)
(0.0029319421 2.0626905e-05 9.9064819e-06)
(0.0028702292 1.9558163e-05 8.8458157e-06)
(0.0028133589 1.8574038e-05 7.9385378e-06)
(0.0027607855 1.7663623e-05 7.159823e-06)
(0.0027120345 1.6818833e-05 6.4890361e-06)
(0.0026666927 1.6033065e-05 5.909021e-06)
(0.0026243991 1.5301094e-05 5.4052718e-06)
(0.0025848383 1.4618819e-05 4.9656529e-06)
(0.0025477347 1.3982713e-05 4.580115e-06)
(0.0025128472 1.3389542e-05 4.2403262e-06)
(0.002479964 1.2836281e-05 3.9393549e-06)
(0.0024488994 1.2320059e-05 3.6714243e-06)
(0.0024194896 1.1838144e-05 3.431726e-06)
(0.00239159 1.138794e-05 3.2162517e-06)
(0.0023650729 1.0966986e-05 3.0216603e-06)
(0.0023398248 1.0572999e-05 2.845174e-06)
(0.0023157449 1.0203874e-05 2.6844742e-06)
(0.0022927433 9.8575797e-06 2.5375939e-06)
(0.0022707398 9.5322137e-06 2.4028638e-06)
(0.002249662 9.2260288e-06 2.2788665e-06)
(0.0022294453 8.9374184e-06 2.1643997e-06)
(0.0022100312 8.6649291e-06 2.0584379e-06)
(0.0021913666 8.4072383e-06 1.9601003e-06)
(0.0021734038 8.1631565e-06 1.8686316e-06)
(0.0021560989 7.9316229e-06 1.7833671e-06)
(0.0021394122 7.7117255e-06 1.7037083e-06)
(0.0021233074 7.502603e-06 1.6291525e-06)
(0.0021077512 7.3033802e-06 1.5592841e-06)
(0.0020927129 7.113188e-06 1.4937192e-06)
(0.0020781645 6.9314164e-06 1.4321045e-06)
(0.0020640799 6.7576064e-06 1.3741144e-06)
(0.0020504351 6.5912615e-06 1.3194625e-06)
(0.0020372075 6.4318803e-06 1.2678952e-06)
(0.0020243766 6.2790072e-06 1.2191879e-06)
(0.0020119231 6.1322405e-06 1.173132e-06)
(0.001999829 5.9912203e-06 1.1295438e-06)
(0.0019880776 5.8556117e-06 1.0882504e-06)
(0.0019766531 5.7251052e-06 1.0490957e-06)
(0.0019655411 5.5994083e-06 1.0119376e-06)
(0.0019547276 5.4782442e-06 9.7664617e-07)
(0.0019441999 5.3613894e-06 9.4310054e-07)
(0.0019339458 5.2486484e-06 9.1118851e-07)
(0.0019239539 5.1398185e-06 8.8080756e-07)
(0.0019142135 5.0347024e-06 8.5185966e-07)
(0.0019047144 4.9331191e-06 8.2425894e-07)
(0.001895447 4.8348994e-06 7.979244e-07)
(0.0018864023 4.7398898e-06 7.7278019e-07)
(0.0018775718 4.6479442e-06 7.4875713e-07)
(0.0018689473 4.5589232e-06 7.2578867e-07)
(0.0018605211 4.4726994e-06 7.0381396e-07)
(0.0018522861 4.3891525e-06 6.827773e-07)
(0.0018442353 4.3081685e-06 6.6262543e-07)
(0.0018363621 4.2296383e-06 6.4330745e-07)
(0.0018286604 4.1534595e-06 6.2477674e-07)
(0.0018211241 4.0795306e-06 6.0698897e-07)
(0.0018137478 4.0077549e-06 5.8990176e-07)
(0.0018065261 3.9380367e-06 5.7347351e-07)
(0.001799454 3.8702802e-06 5.5766706e-07)
(0.0017925266 3.8043814e-06 5.4244615e-07)
(0.0017857396 3.7402367e-06 5.2777825e-07)
(0.0017790885 3.6777269e-06 5.1362965e-07)
(0.0017725695 3.6167257e-06 4.9996997e-07)
(0.0017661787 3.5571076e-06 4.867749e-07)
(0.0017599128 3.4987604e-06 4.7402514e-07)
(0.0017537682 3.4416535e-06 4.6170981e-07)
(0.0017477416 3.3859643e-06 4.4983492e-07)
(0.0017418294 3.3323831e-06 4.3844248e-07)
(0.0017360272 3.2827916e-06 4.2764607e-07)
(0.0017303281 3.2417789e-06 4.1776885e-07)
(0.0017247202 3.220041e-06 4.0999107e-07)
(0.001719183 3.2421552e-06 4.0984971e-07)
(0.001713691 3.3643442e-06 4.4114373e-07)
(0.0017081999 3.7072194e-06 4.7353384e-07)
(0.0016974804 4.4611197e-06 1.8634988e-06)
(0.0095012861 0.00013951169 0.00022248511)
(0.0092133349 0.00022408324 0.00026709763)
(0.0088018509 0.0002570094 0.00025529581)
(0.0083306071 0.00026690691 0.0002382081)
(0.0078754299 0.00026502158 0.00021939837)
(0.0074527063 0.0002529565 0.00019823245)
(0.0070564396 0.00023295893 0.00017634609)
(0.0066827538 0.00020836345 0.0001552305)
(0.006331873 0.00018203353 0.00013558338)
(0.0060047052 0.00015603739 0.00011769036)
(0.0057015056 0.00013180401 0.0001016691)
(0.0054220192 0.00011020725 8.7524315e-05)
(0.0051656909 9.1631901e-05 7.5171987e-05)
(0.0049316845 7.6091187e-05 6.4472618e-05)
(0.0047188814 6.3363143e-05 5.526115e-05)
(0.0045259349 5.3104942e-05 4.7366821e-05)
(0.0043513547 4.4932758e-05 4.0624899e-05)
(0.0041935865 3.847136e-05 3.4883033e-05)
(0.0040510752 3.3381245e-05 3.0003996e-05)
(0.0039223115 2.9370508e-05 2.5866182e-05)
(0.0038058643 2.6197261e-05 2.2362868e-05)
(0.0037004012 2.366673e-05 1.9400962e-05)
(0.0036047 2.1625757e-05 1.689961e-05)
(0.0035176529 1.9956325e-05 1.4788824e-05)
(0.0034382652 1.8569048e-05 1.3008105e-05)
(0.0033656513 1.7397362e-05 1.1504745e-05)
(0.0032990266 1.6392004e-05 1.0233523e-05)
(0.0032376995 1.5516242e-05 9.1565342e-06)
(0.0031810636 1.4743888e-05 8.2421121e-06)
(0.0031285885 1.4056152e-05 7.4635759e-06)
(0.0030798115 1.3438893e-05 6.7985197e-06)
(0.0030343294 1.288115e-05 6.2282227e-06)
(0.0029917905 1.2374495e-05 5.7369833e-06)
(0.0029518882 1.1912419e-05 5.3116667e-06)
(0.0029143553 1.148969e-05 4.9413532e-06)
(0.0028789586 1.1101926e-05 4.6170004e-06)
(0.0028454946 1.0745377e-05 4.3311219e-06)
(0.0028137847 1.0416774e-05 4.0775285e-06)
(0.0027836727 1.0113217e-05 3.8511089e-06)
(0.0027550209 9.832121e-06 3.6476459e-06)
(0.0027277081 9.5711592e-06 3.4636641e-06)
(0.002701627 9.3282484e-06 3.2963008e-06)
(0.0026766823 9.1015148e-06 3.143191e-06)
(0.0026527895 8.889242e-06 3.0023815e-06)
(0.0026298729 8.6898905e-06 2.8722556e-06)
(0.0026078648 8.5020897e-06 2.7514691e-06)
(0.002586704 8.3246165e-06 2.6389099e-06)
(0.0025663358 8.1563967e-06 2.5336423e-06)
(0.0025467102 7.9964779e-06 2.434884e-06)
(0.002527782 7.8440273e-06 2.3419785e-06)
(0.0025095101 7.6983381e-06 2.2543613e-06)
(0.0024918566 7.558811e-06 2.1715436e-06)
(0.0024747871 7.4248992e-06 2.0931132e-06)
(0.0024582699 7.2960209e-06 2.0187201e-06)
(0.0024422756 7.171439e-06 1.9480695e-06)
(0.0024267775 7.0509277e-06 1.8808983e-06)
(0.0024117506 6.9343764e-06 1.8169526e-06)
(0.0023971715 6.8214902e-06 1.7560026e-06)
(0.0023830185 6.7119576e-06 1.6978508e-06)
(0.0023692714 6.6055391e-06 1.6423283e-06)
(0.0023559116 6.5020443e-06 1.5892722e-06)
(0.0023429214 6.4013086e-06 1.5385378e-06)
(0.0023302844 6.3031812e-06 1.4899936e-06)
(0.0023179851 6.2075258e-06 1.4435163e-06)
(0.0023060089 6.114203e-06 1.398994e-06)
(0.0022943424 6.0230679e-06 1.3563262e-06)
(0.0022829727 5.9340573e-06 1.3154163e-06)
(0.0022718877 5.847128e-06 1.27617e-06)
(0.002261076 5.7622037e-06 1.2385013e-06)
(0.0022505267 5.679198e-06 1.2023301e-06)
(0.0022402296 5.5980429e-06 1.1675823e-06)
(0.0022301752 5.5186724e-06 1.1341878e-06)
(0.0022203542 5.4410303e-06 1.1020806e-06)
(0.002210758 5.3650631e-06 1.0711998e-06)
(0.0022013784 5.2907181e-06 1.0414857e-06)
(0.0021922076 5.2179487e-06 1.0128825e-06)
(0.0021832381 5.1467089e-06 9.8533889e-07)
(0.0021744628 5.076957e-06 9.5880325e-07)
(0.0021658752 5.0086498e-06 9.3323078e-07)
(0.0021574688 4.9417462e-06 9.0857452e-07)
(0.0021492375 4.8761999e-06 8.847919e-07)
(0.0021411756 4.811967e-06 8.6183998e-07)
(0.0021332776 4.7489993e-06 8.3967938e-07)
(0.0021255383 4.6872393e-06 8.182712e-07)
(0.0021179527 4.6266221e-06 7.9757769e-07)
(0.0021105161 4.5670672e-06 7.7756101e-07)
(0.0021032242 4.5084813e-06 7.5818436e-07)
(0.0020960727 4.4507549e-06 7.394106e-07)
(0.0020890577 4.3937757e-06 7.21204e-07)
(0.0020821756 4.3374542e-06 7.0352048e-07)
(0.002075423 4.2818091e-06 6.8632187e-07)
(0.0020687967 4.227133e-06 6.6956089e-07)
(0.0020622937 4.1743545e-06 6.5320338e-07)
(0.002055911 4.1258139e-06 6.3726194e-07)
(0.0020496453 4.0868298e-06 6.21985e-07)
(0.0020434926 4.0687778e-06 6.0874774e-07)
(0.0020374483 4.0948771e-06 6.0452261e-07)
(0.0020315149 4.2094251e-06 6.3987824e-07)
(0.0020256647 4.4797474e-06 7.1688479e-07)
(0.0020144539 4.9057755e-06 2.2695249e-06)
(0.0094902877 9.6726608e-05 0.00022289229)
(0.00917661 0.00016632333 0.00026788105)
(0.0087449456 0.00019969046 0.00025550648)
(0.0082664657 0.00021101604 0.00023762681)
(0.00781215 0.0002109939 0.0002181603)
(0.0073950862 0.0002028236 0.00019646328)
(0.0070087986 0.00018827265 0.00017418493)
(0.006648835 0.00016968865 0.0001528463)
(0.0063142174 0.00014929331 0.00013312182)
(0.0060045996 0.00012875288 0.0001152379)
(0.0057192201 0.00010923292 9.9256791e-05)
(0.0054570682 9.1490073e-05 8.514891e-05)
(0.0052170782 7.5923401e-05 7.2816212e-05)
(0.0049981259 6.2643331e-05 6.2119134e-05)
(0.0047989841 5.1561152e-05 5.2900048e-05)
(0.0046183234 4.2472279e-05 4.4997977e-05)
(0.0044547458 3.5118726e-05 3.8256896e-05)
(0.0043068267 2.9230543e-05 3.2530442e-05)
(0.0041731526 2.4550834e-05 2.7684339e-05)
(0.0040523509 2.084911e-05 2.3597362e-05)
(0.0039431142 1.7926912e-05 2.0161345e-05)
(0.0038442168 1.5618599e-05 1.7280682e-05)
(0.0037545253 1.3789364e-05 1.4871531e-05)
(0.0036730042 1.2331759e-05 1.2860863e-05)
(0.0035987172 1.116154e-05 1.1185211e-05)
(0.0035308246 1.0213367e-05 9.7889742e-06)
(0.0034685786 9.4380818e-06 8.6250714e-06)
(0.0034113173 8.7971279e-06 7.6543144e-06)
(0.0033584589 8.2627216e-06 6.8439392e-06)
(0.0033094933 7.8140813e-06 6.1664543e-06)
(0.0032639753 7.4348225e-06 5.5988455e-06)
(0.0032215172 7.1121283e-06 5.121927e-06)
(0.0031817817 6.8360954e-06 4.7197276e-06)
(0.0031444758 6.5990182e-06 4.3789728e-06)
(0.0031093448 6.3947792e-06 4.088681e-06)
(0.0030761678 6.2184042e-06 3.8397969e-06)
(0.0030447526 6.0657943e-06 3.624879e-06)
(0.003014932 5.933527e-06 3.4378175e-06)
(0.0029865602 5.8186968e-06 3.2736188e-06)
(0.0029595097 5.7188179e-06 3.1282046e-06)
(0.002933669 5.6317494e-06 2.9982605e-06)
(0.0029089401 5.5556248e-06 2.8810966e-06)
(0.0028852364 5.4888238e-06 2.7745334e-06)
(0.0028624815 5.429912e-06 2.6768102e-06)
(0.0028406075 5.3776423e-06 2.5865047e-06)
(0.0028195538 5.3309235e-06 2.502473e-06)
(0.0027992664 5.2888083e-06 2.4237893e-06)
(0.0027796963 5.250481e-06 2.3497104e-06)
(0.0027607998 5.2152422e-06 2.279637e-06)
(0.002742537 5.182498e-06 2.2130841e-06)
(0.0027248717 5.1517664e-06 2.1496532e-06)
(0.0027077708 5.1226684e-06 2.0890224e-06)
(0.0026912041 5.0948949e-06 2.0309203e-06)
(0.0026751435 5.0680855e-06 1.9751371e-06)
(0.0026595636 5.0410656e-06 1.9215396e-06)
(0.0026444411 5.014259e-06 1.8699674e-06)
(0.002629754 4.9880171e-06 1.8202527e-06)
(0.0026154815 4.9620728e-06 1.7722798e-06)
(0.0026016045 4.9361413e-06 1.7259602e-06)
(0.0025881054 4.9100841e-06 1.681214e-06)
(0.0025749674 4.8838323e-06 1.6379658e-06)
(0.002562175 4.8573395e-06 1.5961458e-06)
(0.0025497136 4.8305807e-06 1.5556924e-06)
(0.0025375693 4.8035389e-06 1.516548e-06)
(0.0025257292 4.776175e-06 1.4786619e-06)
(0.002514181 4.7483832e-06 1.4419864e-06)
(0.0025029134 4.7202738e-06 1.4064832e-06)
(0.0024919154 4.6919128e-06 1.3721023e-06)
(0.0024811765 4.6632902e-06 1.3387968e-06)
(0.002470687 4.6344014e-06 1.3065286e-06)
(0.0024604377 4.6052677e-06 1.275259e-06)
(0.0024504197 4.5759099e-06 1.2449537e-06)
(0.0024406247 4.5463467e-06 1.2155761e-06)
(0.0024310448 4.5166014e-06 1.1870936e-06)
(0.0024216723 4.4866954e-06 1.1594722e-06)
(0.0024125001 4.45665e-06 1.1326845e-06)
(0.0024035213 4.4264876e-06 1.1066974e-06)
(0.0023947295 4.3962278e-06 1.0814825e-06)
(0.0023861184 4.3658893e-06 1.0570126e-06)
(0.0023776821 4.3354878e-06 1.0332593e-06)
(0.0023694149 4.3050332e-06 1.0101963e-06)
(0.0023613115 4.2745353e-06 9.8779489e-07)
(0.0023533667 4.2439939e-06 9.6603048e-07)
(0.0023455757 4.213396e-06 9.4487456e-07)
(0.0023379338 4.1827222e-06 9.2429978e-07)
(0.0023304365 4.1519254e-06 9.0427631e-07)
(0.0023230798 4.120954e-06 8.8477196e-07)
(0.0023158598 4.0897254e-06 8.6575093e-07)
(0.0023087726 4.0581568e-06 8.47173e-07)
(0.002301815 4.0261911e-06 8.2897974e-07)
(0.0022949838 3.9938753e-06 8.1110703e-07)
(0.0022882766 3.9615302e-06 7.9346337e-07)
(0.002281691 3.9300773e-06 7.7594388e-07)
(0.0022752261 3.9016907e-06 7.5847776e-07)
(0.002268882 3.8809399e-06 7.4124694e-07)
(0.0022626608 3.8766474e-06 7.2572635e-07)
(0.0022565686 3.9043041e-06 7.1957953e-07)
(0.0022506189 3.9866543e-06 7.5579974e-07)
(0.0022447715 4.1390994e-06 8.4931799e-07)
(0.002233564 4.283225e-06 2.4122108e-06)
(0.0094843561 6.6886586e-05 0.00022303624)
(0.0091549219 0.00011904886 0.00026838771)
(0.0087072816 0.00014772497 0.00025588053)
(0.0082191888 0.00015892953 0.00023765677)
(0.0077602858 0.00016026049 0.00021787142)
(0.0073412804 0.00015505102 0.00019586613)
(0.0069552494 0.00014481701 0.00017327438)
(0.0065978366 0.00013121474 0.00015165024)
(0.0062677954 0.00011592881 0.00013169211)
(0.0059642872 0.00010028521 0.0001136244)
(0.0056860598 8.5214431e-05 9.7497522e-05)
(0.0054316726 7.1330408e-05 8.3272195e-05)
(0.0051997008 5.8984298e-05 7.0844883e-05)
(0.0049887459 4.8311754e-05 6.0073373e-05)
(0.0047973943 3.9291582e-05 5.079889e-05)
(0.0046242055 3.1804354e-05 4.2859903e-05)
(0.0044677269 2.5679086e-05 3.6099807e-05)
(0.0043265179 2.0725785e-05 3.0371291e-05)
(0.0041991724 1.6756344e-05 2.5538701e-05)
(0.004084339 1.3596838e-05 2.1479082e-05)
(0.0039807371 1.1093753e-05 1.8082322e-05)
(0.0038871692 9.1161643e-06 1.5250789e-05)
(0.0038025288 7.5553796e-06 1.2898646e-05)
(0.003725804 6.323134e-06 1.0950986e-05)
(0.0036560786 5.3488178e-06 9.3426785e-06)
(0.0035925304 4.5751796e-06 8.0166137e-06)
(0.0035344253 3.9620995e-06 6.9239488e-06)
(0.0034811131 3.4726277e-06 6.0250736e-06)
(0.0034320221 3.0815207e-06 5.2862631e-06)
(0.0033866501 2.7702762e-06 4.67921e-06)
(0.0033445586 2.5236729e-06 4.1805213e-06)
(0.0033053662 2.3295845e-06 3.7707525e-06)
(0.0032687419 2.1784954e-06 3.4337451e-06)
(0.0032343982 2.0629038e-06 3.1561102e-06)
(0.0032020863 1.9768078e-06 2.9267968e-06)
(0.0031715907 1.9153165e-06 2.7367029e-06)
(0.0031427248 1.8743791e-06 2.5783558e-06)
(0.0031153267 1.850605e-06 2.4456292e-06)
(0.0030892563 1.8411251e-06 2.3335234e-06)
(0.0030643915 1.8434978e-06 2.2379666e-06)
(0.003040626 1.8556443e-06 2.1556631e-06)
(0.0030178671 1.8757795e-06 2.0839513e-06)
(0.0029960335 1.9023809e-06 2.0206939e-06)
(0.0029750538 1.9341335e-06 1.9641818e-06)
(0.0029548649 1.9699154e-06 1.9130527e-06)
(0.0029354109 2.0087629e-06 1.8662276e-06)
(0.0029166424 2.0498574e-06 1.8228527e-06)
(0.0028985148 2.0925087e-06 1.7822568e-06)
(0.0028809886 2.1361373e-06 1.7439139e-06)
(0.0028640277 2.1802718e-06 1.7074097e-06)
(0.0028475999 2.2245524e-06 1.6724138e-06)
(0.0028316758 2.2687613e-06 1.6386552e-06)
(0.0028162284 2.3128928e-06 1.6058714e-06)
(0.0028012324 2.3570789e-06 1.5738228e-06)
(0.0027866658 2.3978704e-06 1.5431885e-06)
(0.0027725089 2.4362355e-06 1.5136866e-06)
(0.0027587418 2.4734399e-06 1.4848885e-06)
(0.002745346 2.5095346e-06 1.4567021e-06)
(0.002732305 2.54435e-06 1.4291161e-06)
(0.0027196032 2.577772e-06 1.4021117e-06)
(0.0027072261 2.6097247e-06 1.3756631e-06)
(0.0026951602 2.6401663e-06 1.3497556e-06)
(0.0026833928 2.6690897e-06 1.324375e-06)
(0.0026719116 2.6965033e-06 1.2995091e-06)
(0.0026607054 2.7223728e-06 1.2751533e-06)
(0.0026497635 2.7463548e-06 1.2513136e-06)
(0.002639076 2.7689076e-06 1.2279785e-06)
(0.0026286333 2.7901459e-06 1.2051289e-06)
(0.0026184262 2.8099927e-06 1.182761e-06)
(0.0026084461 2.8284316e-06 1.1608694e-06)
(0.0025986849 2.8454932e-06 1.1394489e-06)
(0.0025891348 2.8612198e-06 1.1184896e-06)
(0.0025797885 2.8756503e-06 1.0979862e-06)
(0.002570639 2.8888308e-06 1.0779295e-06)
(0.0025616795 2.9008059e-06 1.0583086e-06)
(0.0025529038 2.9116184e-06 1.0391178e-06)
(0.0025443058 2.9213137e-06 1.0203478e-06)
(0.0025358796 2.9299294e-06 1.0019886e-06)
(0.0025276198 2.937506e-06 9.8403115e-07)
(0.002519521 2.94408e-06 9.6646467e-07)
(0.0025115783 2.9496801e-06 9.4927896e-07)
(0.0025037869 2.9543374e-06 9.3246121e-07)
(0.0024961421 2.9580683e-06 9.1599946e-07)
(0.0024886396 2.9608812e-06 8.9987999e-07)
(0.0024812752 2.9627745e-06 8.8408458e-07)
(0.002474045 2.963722e-06 8.6859442e-07)
(0.0024669452 2.9636886e-06 8.5338138e-07)
(0.0024599723 2.9626123e-06 8.3841343e-07)
(0.0024531231 2.9604304e-06 8.2364337e-07)
(0.0024463945 2.9570969e-06 8.0900365e-07)
(0.0024397839 2.9526499e-06 7.9439917e-07)
(0.0024332894 2.9473503e-06 7.7969373e-07)
(0.0024269099 2.9419126e-06 7.6471016e-07)
(0.0024206457 2.9379214e-06 7.4926022e-07)
(0.0024144993 2.9384191e-06 7.3336558e-07)
(0.0024084767 2.9484951e-06 7.1826535e-07)
(0.0024025877 2.9751247e-06 7.1113346e-07)
(0.002396846 3.0234602e-06 7.4331309e-07)
(0.0023911946 3.0808304e-06 8.3046735e-07)
(0.0023803644 3.0574263e-06 2.2999437e-06)
(0.0094810492 4.4090135e-05 0.00022308885)
(0.0091422796 7.9975482e-05 0.00026874495)
(0.0086839084 0.00010160921 0.00025628771)
(0.0081880903 0.00011101591 0.00023793456)
(0.0077246858 0.00011275117 0.00021798622)
(0.0073029895 0.00010953687 0.00019578738)
(0.0069155191 0.00010266029 0.00017296032)
(0.0065579578 9.3267235e-05 0.0001510852)
(0.006229001 8.2539593e-05 0.00013089045)
(0.005927585 7.1446832e-05 0.00011261412)
(0.0056522063 6.0673359e-05 9.6309238e-05)
(0.0054012005 5.0670808e-05 8.1936267e-05)
(0.0051729477 4.1706608e-05 6.9390831e-05)
(0.004965887 3.3898116e-05 5.8529097e-05)
(0.0047784814 2.7249954e-05 4.9189879e-05)
(0.0046092054 2.1693072e-05 4.1208774e-05)
(0.0044565535 1.7117436e-05 3.4426144e-05)
(0.0043190553 1.339552e-05 2.8691659e-05)
(0.0041952917 1.0397812e-05 2.3866803e-05)
(0.0040839086 8.0023316e-06 1.9826011e-05)
(0.0039836292 6.099771e-06 1.645686e-05)
(0.0038932634 4.5956631e-06 1.3659716e-05)
(0.0038117126 3.4106723e-06 1.1347012e-05)
(0.0037379734 2.4799276e-06 9.4422922e-06)
(0.0036711359 1.7515108e-06 7.8790893e-06)
(0.0036103859 1.1749038e-06 6.601033e-06)
(0.0035549935 7.2234069e-07 5.5561198e-06)
(0.0035043108 3.7342561e-07 4.7060696e-06)
(0.0034577717 1.0569651e-07 4.0163443e-06)
(0.0034148763 -9.9088153e-08 3.4574136e-06)
(0.0033751872 -2.5333522e-07 3.005495e-06)
(0.0033383243 -3.6639914e-07 2.6409745e-06)
(0.0033039576 -4.4577994e-07 2.3475735e-06)
(0.0032718009 -4.9748422e-07 2.1118264e-06)
(0.0032416065 -5.2634783e-07 1.9226418e-06)
(0.0032131599 -5.3631071e-07 1.7709151e-06)
(0.0031862758 -5.3064096e-07 1.6492029e-06)
(0.0031607936 -5.1206262e-07 1.5514409e-06)
(0.0031365743 -4.8287184e-07 1.4727098e-06)
(0.0031134976 -4.4500776e-07 1.4090329e-06)
(0.0030914586 -4.0011243e-07 1.3572051e-06)
(0.0030703663 -3.4957987e-07 1.3146575e-06)
(0.0030501409 -2.9459443e-07 1.2793306e-06)
(0.0030307129 -2.3616917e-07 1.2495914e-06)
(0.0030120207 -1.7516449e-07 1.2241403e-06)
(0.0029940105 -1.12321e-07 1.2019536e-06)
(0.0029766343 -4.8268657e-08 1.1822245e-06)
(0.0029598495 1.6449193e-08 1.164322e-06)
(0.0029436181 8.1355139e-08 1.1477523e-06)
(0.002927906 1.4602516e-07 1.1321238e-06)
(0.0029126825 2.1005922e-07 1.1171183e-06)
(0.0028979201 2.7304981e-07 1.1024395e-06)
(0.0028835935 3.3454085e-07 1.0876603e-06)
(0.0028696773 3.9432368e-07 1.0722036e-06)
(0.0028561514 4.5704883e-07 1.0590086e-06)
(0.0028429997 5.2060069e-07 1.0472566e-06)
(0.0028302035 5.8225318e-07 1.0356074e-06)
(0.0028177449 6.41639e-07 1.0238012e-06)
(0.0028056084 6.9901889e-07 1.0118745e-06)
(0.0027937799 7.5456114e-07 9.9986813e-07)
(0.0027822461 8.0835039e-07 9.8781023e-07)
(0.0027709946 8.6046896e-07 9.7571878e-07)
(0.0027600137 9.1102728e-07 9.636026e-07)
(0.0027492926 9.6019452e-07 9.5144747e-07)
(0.0027388207 1.008006e-06 9.3926825e-07)
(0.0027285887 1.0528503e-06 9.2746582e-07)
(0.0027185878 1.0958671e-06 9.1582908e-07)
(0.0027088089 1.1375002e-06 9.0425355e-07)
(0.0026992438 1.1777667e-06 8.9275881e-07)
(0.0026898847 1.2166572e-06 8.8136482e-07)
(0.0026807244 1.2541705e-06 8.7007956e-07)
(0.0026717559 1.2903156e-06 8.589069e-07)
(0.0026629726 1.3251093e-06 8.4785245e-07)
(0.0026543682 1.358574e-06 8.3692347e-07)
(0.0026459367 1.3907408e-06 8.2612191e-07)
(0.0026376723 1.421636e-06 8.1545297e-07)
(0.0026295698 1.4512897e-06 8.0492004e-07)
(0.0026216238 1.4797316e-06 7.9452307e-07)
(0.0026138294 1.5069899e-06 7.8426288e-07)
(0.002606182 1.5330932e-06 7.7413911e-07)
(0.0025986769 1.5580629e-06 7.6415203e-07)
(0.0025913099 1.5819213e-06 7.5429491e-07)
(0.0025840769 1.6046817e-06 7.4456417e-07)
(0.0025769739 1.6263491e-06 7.3495191e-07)