/*--------------------------------*- C++ -*----------------------------------*\
  =========                 |
  \\      /  F ield         | OpenFOAM: The Open Source CFD Toolbox
   \\    /   O peration     | Website:  https://openfoam.org
    \\  /    A nd           | Version:  7
     \\/     M anipulation  |
\*---------------------------------------------------------------------------*/
FoamFile
{
    version     2.0;
    format      ascii;
    class       volScalarField;
    location    "1200/heater";
    object      T;
}
// * * * * * * * * * * * * * * * * * * * * * * * * * * * * * * * * * * * * * //

dimensions      [0 0 0 1 0 0 0];

internalField   nonuniform List<scalar> 
36000
(
300.02
300.02001
300.02001
300.02002
300.02003
300.02004
300.02006
300.02007
300.02009
300.0201
300.02012
300.02013
300.02015
300.02017
300.02018
300.0202
300.02022
300.02023
300.02025
300.02027
300.02028
300.0203
300.02031
300.02033
300.02034
300.02035
300.02037
300.02038
300.02039
300.0204
300.02041
300.02042
300.02043
300.02044
300.02045
300.02046
300.02047
300.02047
300.02048
300.02049
300.0205
300.0205
300.02051
300.02051
300.02052
300.02053
300.02053
300.02054
300.02054
300.02054
300.02055
300.02055
300.02056
300.02056
300.02056
300.02057
300.02057
300.02057
300.02058
300.02058
300.02058
300.02058
300.02059
300.02059
300.02059
300.02059
300.0206
300.0206
300.0206
300.0206
300.0206
300.02061
300.02061
300.02061
300.02061
300.02061
300.02061
300.02061
300.02062
300.02062
300.02062
300.02062
300.02062
300.02062
300.02062
300.02062
300.02063
300.02063
300.02063
300.02063
300.02063
300.02063
300.02063
300.02063
300.02063
300.02063
300.02063
300.02063
300.02063
300.02063
300.05307
300.05308
300.0531
300.05312
300.05315
300.05319
300.05323
300.05327
300.05331
300.05336
300.05341
300.05346
300.05351
300.05356
300.05361
300.05366
300.05371
300.05376
300.05381
300.05386
300.0539
300.05395
300.05399
300.05404
300.05408
300.05412
300.05416
300.05419
300.05423
300.05426
300.05429
300.05433
300.05435
300.05438
300.05441
300.05444
300.05446
300.05448
300.05451
300.05453
300.05455
300.05457
300.05458
300.0546
300.05462
300.05463
300.05465
300.05466
300.05468
300.05469
300.0547
300.05472
300.05473
300.05474
300.05475
300.05476
300.05477
300.05478
300.05479
300.05479
300.0548
300.05481
300.05482
300.05482
300.05483
300.05484
300.05484
300.05485
300.05486
300.05486
300.05487
300.05487
300.05488
300.05488
300.05489
300.05489
300.0549
300.0549
300.0549
300.05491
300.05491
300.05492
300.05492
300.05492
300.05493
300.05493
300.05493
300.05494
300.05494
300.05494
300.05494
300.05495
300.05495
300.05495
300.05495
300.05495
300.05496
300.05496
300.05496
300.05496
300.07918
300.0792
300.07923
300.07927
300.07932
300.07938
300.07945
300.07952
300.07959
300.07967
300.07975
300.07984
300.07992
300.08001
300.08009
300.08018
300.08026
300.08035
300.08043
300.08051
300.08059
300.08067
300.08074
300.08081
300.08088
300.08095
300.08101
300.08107
300.08113
300.08119
300.08124
300.08129
300.08134
300.08139
300.08143
300.08148
300.08152
300.08155
300.08159
300.08163
300.08166
300.08169
300.08172
300.08175
300.08178
300.08181
300.08183
300.08185
300.08188
300.0819
300.08192
300.08194
300.08196
300.08198
300.08199
300.08201
300.08203
300.08204
300.08206
300.08207
300.08208
300.0821
300.08211
300.08212
300.08213
300.08214
300.08215
300.08216
300.08217
300.08218
300.08219
300.0822
300.08221
300.08222
300.08223
300.08223
300.08224
300.08225
300.08225
300.08226
300.08227
300.08227
300.08228
300.08228
300.08229
300.08229
300.0823
300.0823
300.08231
300.08231
300.08232
300.08232
300.08233
300.08233
300.08233
300.08234
300.08234
300.08234
300.08234
300.08234
300.09835
300.09837
300.09842
300.09848
300.09855
300.09864
300.09873
300.09883
300.09893
300.09905
300.09916
300.09928
300.0994
300.09952
300.09965
300.09977
300.09989
300.10001
300.10012
300.10024
300.10035
300.10046
300.10056
300.10066
300.10076
300.10085
300.10094
300.10103
300.10111
300.10119
300.10126
300.10133
300.1014
300.10147
300.10153
300.10159
300.10164
300.1017
300.10175
300.1018
300.10184
300.10189
300.10193
300.10197
300.10201
300.10205
300.10208
300.10211
300.10215
300.10218
300.1022
300.10223
300.10226
300.10228
300.10231
300.10233
300.10235
300.10237
300.10239
300.10241
300.10243
300.10245
300.10247
300.10248
300.1025
300.10251
300.10253
300.10254
300.10256
300.10257
300.10258
300.10259
300.10261
300.10262
300.10263
300.10264
300.10265
300.10266
300.10267
300.10268
300.10268
300.10269
300.1027
300.10271
300.10272
300.10272
300.10273
300.10274
300.10274
300.10275
300.10276
300.10276
300.10277
300.10277
300.10278
300.10278
300.10279
300.10279
300.10279
300.10279
300.11055
300.11059
300.11065
300.11073
300.11083
300.11094
300.11106
300.1112
300.11134
300.11148
300.11164
300.11179
300.11195
300.11211
300.11227
300.11243
300.11259
300.11275
300.1129
300.11305
300.11319
300.11333
300.11347
300.1136
300.11372
300.11384
300.11396
300.11407
300.11417
300.11427
300.11437
300.11446
300.11455
300.11463
300.11471
300.11479
300.11486
300.11493
300.11499
300.11505
300.11511
300.11517
300.11522
300.11527
300.11532
300.11536
300.11541
300.11545
300.11549
300.11553
300.11556
300.1156
300.11563
300.11566
300.11569
300.11572
300.11575
300.11578
300.1158
300.11583
300.11585
300.11587
300.1159
300.11592
300.11594
300.11596
300.11597
300.11599
300.11601
300.11603
300.11604
300.11606
300.11607
300.11609
300.1161
300.11611
300.11613
300.11614
300.11615
300.11616
300.11617
300.11618
300.11619
300.1162
300.11621
300.11622
300.11623
300.11624
300.11625
300.11626
300.11626
300.11627
300.11628
300.11628
300.11629
300.1163
300.1163
300.11631
300.11631
300.11631
300.1158
300.11585
300.11593
300.11604
300.11617
300.11631
300.11646
300.11663
300.11681
300.11699
300.11719
300.11739
300.11759
300.1178
300.118
300.1182
300.1184
300.1186
300.11879
300.11898
300.11916
300.11933
300.1195
300.11966
300.11981
300.11996
300.1201
300.12023
300.12036
300.12048
300.12059
300.1207
300.12081
300.12091
300.121
300.12109
300.12118
300.12126
300.12133
300.12141
300.12148
300.12154
300.12161
300.12167
300.12172
300.12178
300.12183
300.12188
300.12193
300.12197
300.12202
300.12206
300.1221
300.12213
300.12217
300.1222
300.12224
300.12227
300.1223
300.12233
300.12236
300.12238
300.12241
300.12243
300.12246
300.12248
300.1225
300.12252
300.12254
300.12256
300.12258
300.1226
300.12262
300.12263
300.12265
300.12267
300.12268
300.1227
300.12271
300.12272
300.12274
300.12275
300.12276
300.12277
300.12279
300.1228
300.12281
300.12282
300.12283
300.12284
300.12285
300.12286
300.12286
300.12287
300.12288
300.12289
300.12289
300.1229
300.1229
300.12291
300.1158
300.11585
300.11593
300.11604
300.11617
300.11631
300.11646
300.11663
300.11681
300.11699
300.11719
300.11739
300.11759
300.1178
300.118
300.11821
300.11841
300.1186
300.11879
300.11898
300.11916
300.11933
300.1195
300.11966
300.11981
300.11996
300.1201
300.12023
300.12036
300.12048
300.12059
300.1207
300.12081
300.12091
300.121
300.12109
300.12118
300.12126
300.12133
300.12141
300.12148
300.12154
300.12161
300.12167
300.12172
300.12178
300.12183
300.12188
300.12193
300.12197
300.12202
300.12206
300.1221
300.12213
300.12217
300.1222
300.12224
300.12227
300.1223
300.12233
300.12236
300.12238
300.12241
300.12243
300.12246
300.12248
300.1225
300.12252
300.12254
300.12256
300.12258
300.1226
300.12262
300.12263
300.12265
300.12267
300.12268
300.1227
300.12271
300.12272
300.12274
300.12275
300.12276
300.12277
300.12279
300.1228
300.12281
300.12282
300.12283
300.12284
300.12285
300.12286
300.12287
300.12287
300.12288
300.12289
300.12289
300.1229
300.12291
300.12291
300.11055
300.11059
300.11065
300.11073
300.11083
300.11094
300.11106
300.1112
300.11134
300.11148
300.11164
300.11179
300.11195
300.11211
300.11227
300.11243
300.11259
300.11275
300.1129
300.11305
300.11319
300.11333
300.11347
300.1136
300.11372
300.11384
300.11396
300.11407
300.11417
300.11427
300.11437
300.11446
300.11455
300.11463
300.11471
300.11479
300.11486
300.11493
300.11499
300.11505
300.11511
300.11517
300.11522
300.11527
300.11532
300.11536
300.11541
300.11545
300.11549
300.11553
300.11556
300.1156
300.11563
300.11566
300.11569
300.11572
300.11575
300.11578
300.1158
300.11583
300.11585
300.11587
300.1159
300.11592
300.11594
300.11596
300.11597
300.11599
300.11601
300.11603
300.11604
300.11606
300.11607
300.11609
300.1161
300.11611
300.11613
300.11614
300.11615
300.11616
300.11617
300.11618
300.11619
300.1162
300.11621
300.11622
300.11623
300.11624
300.11625
300.11626
300.11626
300.11627
300.11628
300.11628
300.11629
300.1163
300.1163
300.11631
300.11631
300.11631
300.09835
300.09837
300.09842
300.09848
300.09855
300.09864
300.09873
300.09883
300.09893
300.09905
300.09916
300.09928
300.0994
300.09952
300.09965
300.09977
300.09989
300.10001
300.10012
300.10024
300.10035
300.10046
300.10056
300.10066
300.10076
300.10085
300.10094
300.10103
300.10111
300.10119
300.10126
300.10133
300.1014
300.10147
300.10153
300.10159
300.10164
300.1017
300.10175
300.1018
300.10184
300.10189
300.10193
300.10197
300.10201
300.10205
300.10208
300.10211
300.10215
300.10218
300.1022
300.10223
300.10226
300.10228
300.10231
300.10233
300.10235
300.10237
300.10239
300.10241
300.10243
300.10245
300.10247
300.10248
300.1025
300.10251
300.10253
300.10254
300.10256
300.10257
300.10258
300.10259
300.10261
300.10262
300.10263
300.10264
300.10265
300.10266
300.10267
300.10268
300.10268
300.10269
300.1027
300.10271
300.10272
300.10272
300.10273
300.10274
300.10274
300.10275
300.10276
300.10276
300.10277
300.10277
300.10278
300.10278
300.10279
300.10279
300.10279
300.10279
300.07918
300.0792
300.07923
300.07927
300.07932
300.07938
300.07945
300.07952
300.07959
300.07967
300.07975
300.07984
300.07992
300.08001
300.08009
300.08018
300.08026
300.08035
300.08043
300.08051
300.08059
300.08067
300.08074
300.08081
300.08088
300.08095
300.08101
300.08107
300.08113
300.08119
300.08124
300.08129
300.08134
300.08139
300.08143
300.08148
300.08152
300.08155
300.08159
300.08163
300.08166
300.08169
300.08172
300.08175
300.08178
300.08181
300.08183
300.08185
300.08188
300.0819
300.08192
300.08194
300.08196
300.08198
300.08199
300.08201
300.08203
300.08204
300.08206
300.08207
300.08208
300.0821
300.08211
300.08212
300.08213
300.08214
300.08215
300.08216
300.08217
300.08218
300.08219
300.0822
300.08221
300.08222
300.08223
300.08223
300.08224
300.08225
300.08225
300.08226
300.08227
300.08227
300.08228
300.08228
300.08229
300.08229
300.0823
300.0823
300.08231
300.08231
300.08232
300.08232
300.08233
300.08233
300.08233
300.08234
300.08234
300.08234
300.08234
300.08234
300.05307
300.05308
300.0531
300.05312
300.05315
300.05319
300.05323
300.05327
300.05331
300.05336
300.05341
300.05346
300.05351
300.05356
300.05361
300.05366
300.05371
300.05376
300.05381
300.05386
300.0539
300.05395
300.05399
300.05404
300.05408
300.05412
300.05416
300.05419
300.05423
300.05426
300.05429
300.05433
300.05435
300.05438
300.05441
300.05444
300.05446
300.05448
300.05451
300.05453
300.05455
300.05457
300.05458
300.0546
300.05462
300.05463
300.05465
300.05466
300.05468
300.05469
300.0547
300.05472
300.05473
300.05474
300.05475
300.05476
300.05477
300.05478
300.05479
300.05479
300.0548
300.05481
300.05482
300.05482
300.05483
300.05484
300.05484
300.05485
300.05486
300.05486
300.05487
300.05487
300.05488
300.05488
300.05489
300.05489
300.0549
300.0549
300.0549
300.05491
300.05491
300.05492
300.05492
300.05492
300.05493
300.05493
300.05493
300.05494
300.05494
300.05494
300.05494
300.05495
300.05495
300.05495
300.05495
300.05495
300.05496
300.05496
300.05496
300.05496
300.02
300.02001
300.02001
300.02002
300.02003
300.02004
300.02006
300.02007
300.02009
300.0201
300.02012
300.02013
300.02015
300.02017
300.02018
300.0202
300.02022
300.02023
300.02025
300.02027
300.02028
300.0203
300.02031
300.02033
300.02034
300.02035
300.02037
300.02038
300.02039
300.0204
300.02041
300.02042
300.02043
300.02044
300.02045
300.02046
300.02047
300.02047
300.02048
300.02049
300.0205
300.0205
300.02051
300.02051
300.02052
300.02053
300.02053
300.02054
300.02054
300.02054
300.02055
300.02055
300.02056
300.02056
300.02056
300.02057
300.02057
300.02057
300.02058
300.02058
300.02058
300.02058
300.02059
300.02059
300.02059
300.02059
300.0206
300.0206
300.0206
300.0206
300.0206
300.02061
300.02061
300.02061
300.02061
300.02061
300.02061
300.02061
300.02062
300.02062
300.02062
300.02062
300.02062
300.02062
300.02062
300.02062
300.02063
300.02063
300.02063
300.02063
300.02063
300.02063
300.02063
300.02063
300.02063
300.02063
300.02063
300.02063
300.02063
300.02063
300.02
300.02001
300.02001
300.02002
300.02003
300.02004
300.02006
300.02007
300.02008
300.0201
300.02012
300.02013
300.02015
300.02017
300.02018
300.0202
300.02022
300.02023
300.02025
300.02026
300.02028
300.02029
300.02031
300.02032
300.02034
300.02035
300.02036
300.02038
300.02039
300.0204
300.02041
300.02042
300.02043
300.02044
300.02045
300.02046
300.02046
300.02047
300.02048
300.02049
300.02049
300.0205
300.02051
300.02051
300.02052
300.02052
300.02053
300.02053
300.02054
300.02054
300.02055
300.02055
300.02055
300.02056
300.02056
300.02057
300.02057
300.02057
300.02057
300.02058
300.02058
300.02058
300.02059
300.02059
300.02059
300.02059
300.02059
300.0206
300.0206
300.0206
300.0206
300.0206
300.02061
300.02061
300.02061
300.02061
300.02061
300.02061
300.02061
300.02062
300.02062
300.02062
300.02062
300.02062
300.02062
300.02062
300.02062
300.02062
300.02063
300.02063
300.02063
300.02063
300.02063
300.02063
300.02063
300.02063
300.02063
300.02063
300.02063
300.02063
300.05307
300.05308
300.0531
300.05312
300.05315
300.05319
300.05322
300.05327
300.05331
300.05336
300.0534
300.05345
300.0535
300.05355
300.0536
300.05365
300.0537
300.05375
300.0538
300.05385
300.0539
300.05394
300.05399
300.05403
300.05407
300.05411
300.05415
300.05418
300.05422
300.05425
300.05429
300.05432
300.05435
300.05437
300.0544
300.05443
300.05445
300.05448
300.0545
300.05452
300.05454
300.05456
300.05458
300.05459
300.05461
300.05463
300.05464
300.05466
300.05467
300.05468
300.0547
300.05471
300.05472
300.05473
300.05474
300.05475
300.05476
300.05477
300.05478
300.05479
300.0548
300.05481
300.05481
300.05482
300.05483
300.05483
300.05484
300.05485
300.05485
300.05486
300.05486
300.05487
300.05487
300.05488
300.05488
300.05489
300.05489
300.0549
300.0549
300.0549
300.05491
300.05491
300.05492
300.05492
300.05492
300.05493
300.05493
300.05493
300.05493
300.05494
300.05494
300.05494
300.05494
300.05495
300.05495
300.05495
300.05495
300.05495
300.05496
300.05496
300.07918
300.0792
300.07923
300.07927
300.07932
300.07938
300.07945
300.07952
300.07959
300.07967
300.07975
300.07983
300.07991
300.08
300.08008
300.08017
300.08025
300.08033
300.08042
300.0805
300.08057
300.08065
300.08072
300.0808
300.08086
300.08093
300.08099
300.08106
300.08111
300.08117
300.08122
300.08128
300.08133
300.08137
300.08142
300.08146
300.0815
300.08154
300.08158
300.08161
300.08165
300.08168
300.08171
300.08174
300.08177
300.08179
300.08182
300.08184
300.08186
300.08189
300.08191
300.08193
300.08195
300.08197
300.08198
300.082
300.08202
300.08203
300.08205
300.08206
300.08207
300.08209
300.0821
300.08211
300.08212
300.08213
300.08215
300.08216
300.08217
300.08217
300.08218
300.08219
300.0822
300.08221
300.08222
300.08222
300.08223
300.08224
300.08225
300.08225
300.08226
300.08227
300.08227
300.08228
300.08228
300.08229
300.08229
300.0823
300.0823
300.08231
300.08231
300.08232
300.08232
300.08232
300.08233
300.08233
300.08233
300.08234
300.08234
300.08234
300.09835
300.09837
300.09842
300.09848
300.09855
300.09863
300.09872
300.09882
300.09893
300.09904
300.09915
300.09927
300.09938
300.0995
300.09962
300.09974
300.09986
300.09998
300.1001
300.10021
300.10032
300.10043
300.10053
300.10063
300.10073
300.10082
300.10091
300.101
300.10108
300.10116
300.10123
300.1013
300.10137
300.10144
300.1015
300.10156
300.10162
300.10167
300.10172
300.10177
300.10182
300.10186
300.10191
300.10195
300.10199
300.10202
300.10206
300.10209
300.10212
300.10215
300.10218
300.10221
300.10224
300.10226
300.10229
300.10231
300.10233
300.10236
300.10238
300.1024
300.10242
300.10243
300.10245
300.10247
300.10248
300.1025
300.10251
300.10253
300.10254
300.10255
300.10257
300.10258
300.10259
300.1026
300.10261
300.10262
300.10263
300.10264
300.10265
300.10266
300.10267
300.10268
300.10269
300.1027
300.1027
300.10271
300.10272
300.10273
300.10273
300.10274
300.10275
300.10275
300.10276
300.10276
300.10277
300.10277
300.10278
300.10278
300.10278
300.10278
300.11055
300.11059
300.11065
300.11073
300.11083
300.11094
300.11106
300.11118
300.11132
300.11146
300.11161
300.11176
300.11192
300.11207
300.11223
300.11239
300.11254
300.1127
300.11285
300.11299
300.11314
300.11327
300.11341
300.11354
300.11366
300.11378
300.1139
300.11401
300.11412
300.11422
300.11431
300.11441
300.11449
300.11458
300.11466
300.11473
300.11481
300.11488
300.11494
300.11501
300.11507
300.11512
300.11518
300.11523
300.11528
300.11533
300.11537
300.11541
300.11545
300.11549
300.11553
300.11557
300.1156
300.11563
300.11566
300.11569
300.11572
300.11575
300.11577
300.1158
300.11582
300.11585
300.11587
300.11589
300.11591
300.11593
300.11595
300.11597
300.11598
300.116
300.11602
300.11603
300.11605
300.11606
300.11608
300.11609
300.1161
300.11612
300.11613
300.11614
300.11615
300.11616
300.11617
300.11618
300.11619
300.1162
300.11621
300.11622
300.11623
300.11624
300.11625
300.11625
300.11626
300.11627
300.11627
300.11628
300.11629
300.11629
300.11629
300.1163
300.1158
300.11585
300.11593
300.11603
300.11616
300.11629
300.11644
300.1166
300.11677
300.11695
300.11713
300.11732
300.11751
300.11771
300.1179
300.1181
300.11829
300.11848
300.11867
300.11885
300.11903
300.1192
300.11937
300.11953
300.11968
300.11983
300.11997
300.12011
300.12024
300.12036
300.12048
300.12059
300.1207
300.1208
300.1209
300.12099
300.12108
300.12117
300.12125
300.12132
300.12139
300.12146
300.12153
300.12159
300.12165
300.12171
300.12176
300.12181
300.12186
300.12191
300.12195
300.122
300.12204
300.12208
300.12211
300.12215
300.12218
300.12222
300.12225
300.12228
300.12231
300.12233
300.12236
300.12239
300.12241
300.12243
300.12246
300.12248
300.1225
300.12252
300.12254
300.12256
300.12258
300.12259
300.12261
300.12263
300.12264
300.12266
300.12267
300.12269
300.1227
300.12271
300.12273
300.12274
300.12275
300.12276
300.12278
300.12279
300.1228
300.12281
300.12282
300.12283
300.12284
300.12284
300.12285
300.12286
300.12287
300.12287
300.12288
300.12288
300.1158
300.11585
300.11593
300.11604
300.11616
300.11629
300.11644
300.1166
300.11677
300.11695
300.11713
300.11732
300.11751
300.11771
300.1179
300.1181
300.11829
300.11848
300.11867
300.11885
300.11903
300.1192
300.11937
300.11953
300.11968
300.11983
300.11997
300.12011
300.12024
300.12036
300.12048
300.12059
300.1207
300.1208
300.1209
300.12099
300.12108
300.12117
300.12125
300.12132
300.12139
300.12146
300.12153
300.12159
300.12165
300.12171
300.12176
300.12181
300.12186
300.12191
300.12195
300.122
300.12204
300.12208
300.12211
300.12215
300.12218
300.12222
300.12225
300.12228
300.12231
300.12233
300.12236
300.12239
300.12241
300.12243
300.12246
300.12248
300.1225
300.12252
300.12254
300.12256
300.12258
300.12259
300.12261
300.12263
300.12264
300.12266
300.12267
300.12269
300.1227
300.12271
300.12273
300.12274
300.12275
300.12276
300.12278
300.12279
300.1228
300.12281
300.12282
300.12283
300.12284
300.12284
300.12285
300.12286
300.12287
300.12287
300.12288
300.12288
300.11055
300.11059
300.11065
300.11073
300.11083
300.11094
300.11106
300.11118
300.11132
300.11146
300.11161
300.11176
300.11192
300.11207
300.11223
300.11239
300.11254
300.1127
300.11285
300.11299
300.11314
300.11327
300.11341
300.11354
300.11366
300.11378
300.1139
300.11401
300.11412
300.11422
300.11431
300.11441
300.11449
300.11458
300.11466
300.11474
300.11481
300.11488
300.11494
300.11501
300.11507
300.11512
300.11518
300.11523
300.11528
300.11533
300.11537
300.11541
300.11545
300.11549
300.11553
300.11557
300.1156
300.11563
300.11566
300.11569
300.11572
300.11575
300.11577
300.1158
300.11582
300.11585
300.11587
300.11589
300.11591
300.11593
300.11595
300.11597
300.11598
300.116
300.11602
300.11603
300.11605
300.11606
300.11608
300.11609
300.1161
300.11612
300.11613
300.11614
300.11615
300.11616
300.11617
300.11618
300.11619
300.1162
300.11621
300.11622
300.11623
300.11624
300.11625
300.11625
300.11626
300.11627
300.11627
300.11628
300.11629
300.11629
300.11629
300.1163
300.09835
300.09837
300.09842
300.09848
300.09855
300.09863
300.09872
300.09882
300.09893
300.09904
300.09915
300.09927
300.09938
300.0995
300.09962
300.09974
300.09986
300.09998
300.1001
300.10021
300.10032
300.10043
300.10053
300.10063
300.10073
300.10082
300.10091
300.101
300.10108
300.10116
300.10123
300.1013
300.10137
300.10144
300.1015
300.10156
300.10162
300.10167
300.10172
300.10177
300.10182
300.10186
300.10191
300.10195
300.10199
300.10202
300.10206
300.10209
300.10212
300.10215
300.10218
300.10221
300.10224
300.10226
300.10229
300.10231
300.10233
300.10236
300.10238
300.1024
300.10242
300.10243
300.10245
300.10247
300.10248
300.1025
300.10251
300.10253
300.10254
300.10255
300.10257
300.10258
300.10259
300.1026
300.10261
300.10262
300.10263
300.10264
300.10265
300.10266
300.10267
300.10268
300.10269
300.1027
300.1027
300.10271
300.10272
300.10273
300.10273
300.10274
300.10275
300.10275
300.10276
300.10276
300.10277
300.10277
300.10278
300.10278
300.10278
300.10278
300.07918
300.0792
300.07923
300.07927
300.07932
300.07938
300.07945
300.07952
300.07959
300.07967
300.07975
300.07983
300.07991
300.08
300.08008
300.08017
300.08025
300.08034
300.08042
300.0805
300.08057
300.08065
300.08072
300.0808
300.08086
300.08093
300.08099
300.08106
300.08111
300.08117
300.08122
300.08128
300.08133
300.08137
300.08142
300.08146
300.0815
300.08154
300.08158
300.08161
300.08165
300.08168
300.08171
300.08174
300.08177
300.08179
300.08182
300.08184
300.08187
300.08189
300.08191
300.08193
300.08195
300.08197
300.08198
300.082
300.08202
300.08203
300.08205
300.08206
300.08207
300.08209
300.0821
300.08211
300.08212
300.08213
300.08215
300.08216
300.08217
300.08217
300.08218
300.08219
300.0822
300.08221
300.08222
300.08222
300.08223
300.08224
300.08225
300.08225
300.08226
300.08227
300.08227
300.08228
300.08228
300.08229
300.08229
300.0823
300.0823
300.08231
300.08231
300.08232
300.08232
300.08232
300.08233
300.08233
300.08233
300.08234
300.08234
300.08234
300.05307
300.05308
300.0531
300.05312
300.05315
300.05319
300.05322
300.05327
300.05331
300.05336
300.0534
300.05345
300.0535
300.05355
300.0536
300.05365
300.0537
300.05375
300.0538
300.05385
300.0539
300.05394
300.05399
300.05403
300.05407
300.05411
300.05415
300.05418
300.05422
300.05425
300.05429
300.05432
300.05435
300.05437
300.0544
300.05443
300.05445
300.05448
300.0545
300.05452
300.05454
300.05456
300.05458
300.05459
300.05461
300.05463
300.05464
300.05466
300.05467
300.05468
300.0547
300.05471
300.05472
300.05473
300.05474
300.05475
300.05476
300.05477
300.05478
300.05479
300.0548
300.05481
300.05481
300.05482
300.05483
300.05483
300.05484
300.05485
300.05485
300.05486
300.05486
300.05487
300.05487
300.05488
300.05488
300.05489
300.05489
300.0549
300.0549
300.0549
300.05491
300.05491
300.05492
300.05492
300.05492
300.05493
300.05493
300.05493
300.05493
300.05494
300.05494
300.05494
300.05494
300.05495
300.05495
300.05495
300.05495
300.05495
300.05496
300.05496
300.02
300.02001
300.02001
300.02002
300.02003
300.02004
300.02006
300.02007
300.02008
300.0201
300.02012
300.02013
300.02015
300.02017
300.02018
300.0202
300.02022
300.02023
300.02025
300.02026
300.02028
300.02029
300.02031
300.02032
300.02034
300.02035
300.02036
300.02038
300.02039
300.0204
300.02041
300.02042
300.02043
300.02044
300.02045
300.02046
300.02046
300.02047
300.02048
300.02049
300.02049
300.0205
300.02051
300.02051
300.02052
300.02052
300.02053
300.02053
300.02054
300.02054
300.02055
300.02055
300.02055
300.02056
300.02056
300.02057
300.02057
300.02057
300.02057
300.02058
300.02058
300.02058
300.02059
300.02059
300.02059
300.02059
300.02059
300.0206
300.0206
300.0206
300.0206
300.0206
300.02061
300.02061
300.02061
300.02061
300.02061
300.02061
300.02061
300.02062
300.02062
300.02062
300.02062
300.02062
300.02062
300.02062
300.02062
300.02062
300.02063
300.02063
300.02063
300.02063
300.02063
300.02063
300.02063
300.02063
300.02063
300.02063
300.02063
300.02063
300.02
300.02001
300.02001
300.02002
300.02003
300.02004
300.02006
300.02007
300.02008
300.0201
300.02011
300.02013
300.02015
300.02016
300.02018
300.0202
300.02021
300.02023
300.02024
300.02026
300.02028
300.02029
300.02031
300.02032
300.02033
300.02035
300.02036
300.02037
300.02038
300.02039
300.0204
300.02042
300.02042
300.02043
300.02044
300.02045
300.02046
300.02047
300.02048
300.02048
300.02049
300.0205
300.0205
300.02051
300.02051
300.02052
300.02052
300.02053
300.02053
300.02054
300.02054
300.02055
300.02055
300.02055
300.02056
300.02056
300.02057
300.02057
300.02057
300.02057
300.02058
300.02058
300.02058
300.02058
300.02059
300.02059
300.02059
300.02059
300.0206
300.0206
300.0206
300.0206
300.0206
300.0206
300.02061
300.02061
300.02061
300.02061
300.02061
300.02061
300.02061
300.02062
300.02062
300.02062
300.02062
300.02062
300.02062
300.02062
300.02062
300.02062
300.02063
300.02063
300.02063
300.02063
300.02063
300.02063
300.02063
300.02063
300.02063
300.02063
300.05307
300.05308
300.0531
300.05312
300.05315
300.05318
300.05322
300.05326
300.05331
300.05335
300.0534
300.05345
300.05349
300.05354
300.05359
300.05364
300.05369
300.05374
300.05379
300.05384
300.05388
300.05393
300.05397
300.05401
300.05406
300.05409
300.05413
300.05417
300.0542
300.05424
300.05427
300.0543
300.05433
300.05436
300.05439
300.05441
300.05444
300.05446
300.05448
300.05451
300.05453
300.05455
300.05456
300.05458
300.0546
300.05462
300.05463
300.05465
300.05466
300.05467
300.05469
300.0547
300.05471
300.05472
300.05473
300.05474
300.05475
300.05476
300.05477
300.05478
300.05479
300.0548
300.0548
300.05481
300.05482
300.05482
300.05483
300.05484
300.05484
300.05485
300.05486
300.05486
300.05487
300.05487
300.05488
300.05488
300.05488
300.05489
300.05489
300.0549
300.0549
300.0549
300.05491
300.05491
300.05492
300.05492
300.05492
300.05493
300.05493
300.05493
300.05493
300.05494
300.05494
300.05494
300.05494
300.05495
300.05495
300.05495
300.05495
300.05495
300.07918
300.0792
300.07923
300.07927
300.07932
300.07938
300.07944
300.07951
300.07958
300.07966
300.07974
300.07982
300.0799
300.07998
300.08007
300.08015
300.08023
300.08031
300.08039
300.08047
300.08055
300.08062
300.0807
300.08077
300.08084
300.0809
300.08097
300.08103
300.08109
300.08114
300.0812
300.08125
300.0813
300.08134
300.08139
300.08143
300.08147
300.08151
300.08155
300.08159
300.08162
300.08165
300.08168
300.08171
300.08174
300.08177
300.0818
300.08182
300.08184
300.08187
300.08189
300.08191
300.08193
300.08195
300.08196
300.08198
300.082
300.08201
300.08203
300.08204
300.08206
300.08207
300.08208
300.0821
300.08211
300.08212
300.08213
300.08214
300.08215
300.08216
300.08217
300.08218
300.08219
300.0822
300.0822
300.08221
300.08222
300.08223
300.08223
300.08224
300.08225
300.08225
300.08226
300.08226
300.08227
300.08228
300.08228
300.08229
300.08229
300.0823
300.0823
300.0823
300.08231
300.08231
300.08232
300.08232
300.08232
300.08233
300.08233
300.08233
300.09835
300.09837
300.09841
300.09847
300.09855
300.09863
300.09872
300.09881
300.09892
300.09902
300.09913
300.09924
300.09936
300.09948
300.09959
300.09971
300.09983
300.09994
300.10006
300.10017
300.10027
300.10038
300.10048
300.10058
300.10068
300.10077
300.10086
300.10095
300.10103
300.10111
300.10118
300.10126
300.10132
300.10139
300.10145
300.10151
300.10157
300.10163
300.10168
300.10173
300.10178
300.10182
300.10187
300.10191
300.10195
300.10199
300.10202
300.10206
300.10209
300.10212
300.10215
300.10218
300.10221
300.10223
300.10226
300.10228
300.1023
300.10233
300.10235
300.10237
300.10239
300.10241
300.10242
300.10244
300.10246
300.10247
300.10249
300.1025
300.10252
300.10253
300.10254
300.10256
300.10257
300.10258
300.10259
300.1026
300.10261
300.10262
300.10263
300.10264
300.10265
300.10266
300.10267
300.10268
300.10268
300.10269
300.1027
300.10271
300.10271
300.10272
300.10273
300.10273
300.10274
300.10274
300.10275
300.10275
300.10276
300.10276
300.10277
300.10277
300.11055
300.11059
300.11065
300.11073
300.11082
300.11093
300.11104
300.11117
300.1113
300.11144
300.11158
300.11173
300.11188
300.11203
300.11218
300.11233
300.11248
300.11263
300.11277
300.11292
300.11306
300.11319
300.11333
300.11346
300.11358
300.1137
300.11381
300.11393
300.11403
300.11413
300.11423
300.11432
300.11441
300.1145
300.11458
300.11466
300.11473
300.1148
300.11487
300.11494
300.115
300.11506
300.11511
300.11516
300.11522
300.11526
300.11531
300.11535
300.1154
300.11544
300.11547
300.11551
300.11555
300.11558
300.11561
300.11564
300.11567
300.1157
300.11573
300.11575
300.11578
300.1158
300.11582
300.11585
300.11587
300.11589
300.11591
300.11593
300.11594
300.11596
300.11598
300.11599
300.11601
300.11603
300.11604
300.11605
300.11607
300.11608
300.11609
300.11611
300.11612
300.11613
300.11614
300.11615
300.11616
300.11617
300.11618
300.11619
300.1162
300.11621
300.11622
300.11622
300.11623
300.11624
300.11625
300.11625
300.11626
300.11626
300.11627
300.11627
300.1158
300.11585
300.11593
300.11603
300.11615
300.11628
300.11642
300.11657
300.11674
300.1169
300.11708
300.11726
300.11744
300.11763
300.11781
300.118
300.11818
300.11836
300.11854
300.11872
300.11889
300.11906
300.11922
300.11938
300.11953
300.11968
300.11982
300.11996
300.12009
300.12022
300.12034
300.12045
300.12056
300.12067
300.12077
300.12086
300.12095
300.12104
300.12112
300.1212
300.12128
300.12135
300.12142
300.12148
300.12154
300.1216
300.12166
300.12171
300.12177
300.12182
300.12186
300.12191
300.12195
300.12199
300.12203
300.12207
300.1221
300.12214
300.12217
300.1222
300.12223
300.12226
300.12229
300.12232