/*--------------------------------*- C++ -*----------------------------------*\
  =========                 |
  \\      /  F ield         | OpenFOAM: The Open Source CFD Toolbox
   \\    /   O peration     | Website:  https://openfoam.org
    \\  /    A nd           | Version:  7
     \\/     M anipulation  |
\*---------------------------------------------------------------------------*/
FoamFile
{
    version     2.0;
    format      ascii;
    class       surfaceScalarField;
    location    "250/water";
    object      phi;
}
// * * * * * * * * * * * * * * * * * * * * * * * * * * * * * * * * * * * * * //

dimensions      [1 0 -1 0 0 0 0];

internalField   nonuniform List<scalar> 
156660
(
9.905724e-05
6.0010402e-06
6.0528092e-06
8.6847498e-05
6.0555113e-06
6.1542307e-06
7.5687891e-05
5.5111362e-06
5.6484701e-06
6.5441704e-05
5.0404181e-06
5.2057689e-06
5.6267661e-05
4.4956436e-06
4.6783992e-06
4.8318019e-05
3.8797648e-06
4.0698777e-06
4.1624776e-05
3.2524448e-06
3.4407982e-06
3.6124897e-05
2.660462e-06
2.839417e-06
3.1692235e-05
2.1345127e-06
2.2981489e-06
2.8162841e-05
1.6926975e-06
1.8366964e-06
2.5361437e-05
1.3399933e-06
1.4614113e-06
2.3124664e-05
1.0698476e-06
1.1669256e-06
2.1315127e-05
8.6875418e-07
9.4078225e-07
1.9825714e-05
7.2110066e-07
7.6831272e-07
1.8577278e-05
6.1248249e-07
6.3595306e-07
1.7513255e-05
5.3125219e-07
5.3277147e-07
1.6593744e-05
4.6879722e-07
4.5071346e-07
1.5790433e-05
4.1913722e-07
3.8417388e-07
1.5082784e-05
3.7829071e-07
3.2935852e-07
1.4455417e-05
3.4367128e-07
2.8369561e-07
1.3896409e-05
3.136141e-07
2.4539334e-07
1.339622e-05
2.870445e-07
2.1314452e-07
1.2947015e-05
2.6326034e-07
1.8594513e-07
1.2542237e-05
2.4179365e-07
1.6298461e-07
1.2176318e-05
2.2232208e-07
1.435969e-07
1.1844484e-05
2.0461479e-07
1.2721881e-07
1.1542609e-05
1.8849494e-07
1.1337973e-07
1.1267116e-05
1.7381573e-07
1.0167794e-07
1.1014892e-05
1.6046271e-07
9.1760848e-08
1.0783252e-05
1.4833966e-07
8.3300597e-08
1.0569851e-05
1.3734902e-07
7.6052123e-08
1.0372614e-05
1.2738864e-07
6.9848322e-08
1.0189731e-05
1.1836807e-07
6.4514851e-08
1.001963e-05
1.1020448e-07
5.9896635e-08
9.8609388e-06
1.0281925e-07
5.5871672e-08
9.7124594e-06
9.6137947e-08
5.2341354e-08
9.5731439e-06
9.0091176e-08
4.9224349e-08
9.4420758e-06
8.4614463e-08
4.6453553e-08
9.3184531e-06
7.9648697e-08
4.3974112e-08
9.2015723e-06
7.5139722e-08
4.174107e-08
9.0908166e-06
7.1038193e-08
3.9717568e-08
8.9856431e-06
6.7301139e-08
3.7872277e-08
8.8855707e-06
6.3894249e-08
3.6178121e-08
8.7901757e-06
6.0780119e-08
3.461494e-08
8.6990829e-06
5.7926159e-08
3.3166679e-08
8.611959e-06
5.5303739e-08
3.182016e-08
8.5285071e-06
5.2887438e-08
3.0564413e-08
8.4484618e-06
5.0655062e-08
2.9390302e-08
8.3715847e-06
4.8587031e-08
2.8290017e-08
8.2976614e-06
4.666621e-08
2.7257218e-08
8.2264975e-06
4.487746e-08
2.6286425e-08
8.1579201e-06
4.3208775e-08
2.5368543e-08
8.0917731e-06
4.1649045e-08
2.4498038e-08
8.0279107e-06
4.0186983e-08
2.3675348e-08
7.9662005e-06
3.8812678e-08
2.2897528e-08
7.9065219e-06
3.7518386e-08
2.2160232e-08
7.8487639e-06
3.6297873e-08
2.1460146e-08
7.7928241e-06
3.5145172e-08
2.079459e-08
7.7386083e-06
3.405466e-08
2.0161182e-08
7.6860293e-06
3.302133e-08
1.9557676e-08
7.6350062e-06
3.2040781e-08
1.8982262e-08
7.5854641e-06
3.1109051e-08
1.8433076e-08
7.537333e-06
3.0222605e-08
1.7908488e-08
7.4905477e-06
2.9378255e-08
1.7406991e-08
7.4450476e-06
2.8573004e-08
1.6927198e-08
7.4007755e-06
2.7804238e-08
1.646779e-08
7.3576783e-06
2.7069582e-08
1.6027631e-08
7.3157056e-06
2.6367041e-08
1.5605626e-08
7.2748103e-06
2.5694665e-08
1.5200654e-08
7.2349479e-06
2.5050569e-08
1.481183e-08
7.1960766e-06
2.4433084e-08
1.4438215e-08
7.158157e-06
2.3840664e-08
1.4078932e-08
7.1211518e-06
2.32719e-08
1.373331e-08
7.0850257e-06
2.2725504e-08
1.3400535e-08
7.0497456e-06
2.2200218e-08
1.3079955e-08
7.0152798e-06
2.1694932e-08
1.2770906e-08
6.9815984e-06
2.1208616e-08
1.2472748e-08
6.9486733e-06
2.0740238e-08
1.2184906e-08
6.9164775e-06
2.0288996e-08
1.1906818e-08
6.8849857e-06
1.9853961e-08
1.1637812e-08
6.8541739e-06
1.9434402e-08
1.1377458e-08
6.8240193e-06
1.9029459e-08
1.1125106e-08
6.7945006e-06
1.8638478e-08
1.0880244e-08
6.7655975e-06
1.8260749e-08
1.0642318e-08
6.7372912e-06
1.7895544e-08
1.0410739e-08
6.709564e-06
1.7542121e-08
1.0185069e-08
6.6823994e-06
1.7199642e-08
9.964852e-09
6.6557824e-06
1.6867289e-08
9.7498161e-09
6.6296982e-06
1.6544108e-08
9.5399829e-09
6.604133e-06
1.6229258e-08
9.3360146e-09
6.5790713e-06
1.5921969e-08
9.1396878e-09
6.5544939e-06
1.562232e-08
8.9551029e-09
6.5303707e-06
1.5332542e-08
8.7906912e-09
6.5066466e-06
1.5060449e-08
8.6635877e-09
6.4832093e-06
1.4827803e-08
8.6095358e-09
6.4598102e-06
1.4693081e-08
8.7060016e-09
6.4358387e-06
1.4826396e-08
9.1451264e-09
6.4096302e-06
1.5741757e-08
1.0466724e-08
6.3782854e-06
1.8026578e-08
1.3318228e-08
3.23002e-08
2.7923537e-08
0.00010646494
4.1872385e-06
6.4599816e-06
0.0001002019
5.695418e-06
6.6231353e-06
9.3659588e-05
5.7790389e-06
6.2744098e-06
8.7011589e-05
5.6514782e-06
6.0369387e-06
8.0422927e-05
5.3669119e-06
5.7173941e-06
7.4094022e-05
4.9022832e-06
5.3063863e-06
6.8167026e-05
4.3278135e-06
4.8516273e-06
6.2722565e-05
3.717891e-06
4.387032e-06
5.7799049e-05
3.1243144e-06
3.9337145e-06
5.3403345e-05
2.5820689e-06
3.5063329e-06
4.9517402e-05
2.1121062e-06
3.1138299e-06
4.6105482e-05
1.7220197e-06
2.7597474e-06
4.3121558e-05
1.4089355e-06
2.4437429e-06
4.0515558e-05
1.1637552e-06
2.163346e-06
3.8237948e-05
9.7485853e-07
1.9152336e-06
3.6242683e-05
8.3055978e-07
1.6959573e-06
3.4488759e-05
7.2043701e-07
1.5022849e-06
3.2940716e-05
6.3586296e-07
1.3313172e-06
3.1568463e-05
5.7005005e-07
1.1804931e-06
3.0346733e-05
5.1784899e-07
1.0475522e-06
2.9254398e-05
4.7545952e-07
9.3049031e-07
2.8273782e-05
4.401396e-07
8.2752024e-07
2.7390054e-05
4.0994896e-07
7.3704009e-07
2.6590699e-05
3.8353956e-07
6.5760856e-07
2.5865102e-05
3.5998887e-07
5.879307e-07
2.5204198e-05
3.3867633e-07
5.2684264e-07
2.4600205e-05
3.1918359e-07
4.7330348e-07
2.4046429e-05
3.0120188e-07
4.2639017e-07
2.3537073e-05
2.8455201e-07
3.8526716e-07
2.3067119e-05
2.6911098e-07
3.4918237e-07
2.2632208e-05
2.5478168e-07
3.1747785e-07
2.2228528e-05
2.4147385e-07
2.8959533e-07
2.1852744e-05
2.2911076e-07
2.6504126e-07
2.1501947e-05
2.1762895e-07
2.4337259e-07
2.1173591e-05
2.0696953e-07
2.2420574e-07
2.0865444e-05
1.9707569e-07
2.0720866e-07
2.0575549e-05
1.8789254e-07
1.9209399e-07
2.0302183e-05
1.7936721e-07
1.7861346e-07
2.0043829e-05
1.7144909e-07
1.6655323e-07
1.979915e-05
1.6408986e-07
1.5572942e-07
1.956696e-05
1.5724384e-07
1.4598403e-07
1.934621e-05
1.5086896e-07
1.3718218e-07
1.9135969e-05
1.4492652e-07
1.2920881e-07
1.8935407e-05
1.3937908e-07
1.2196309e-07
1.8743783e-05
1.3419232e-07
1.1535767e-07
1.8560434e-05
1.2933511e-07
1.0931727e-07
1.8384766e-05
1.2477909e-07
1.0377716e-07
1.8216241e-05
1.2049852e-07
9.8681317e-08
1.8054377e-05
1.1647012e-07
9.3981331e-08
1.7898734e-05
1.1267292e-07
8.9635422e-08
1.7748917e-05
1.0908821e-07
8.5607016e-08
1.7604563e-05
1.0570005e-07
8.186243e-08
1.7465345e-05
1.024934e-07
7.8373283e-08
1.7330962e-05
9.9453015e-08
7.5117001e-08
1.7201138e-05
9.6564413e-08
7.2072728e-08
1.7075619e-05
9.3816668e-08
6.9221156e-08
1.695417e-05
9.1201107e-08
6.6545087e-08
1.6836577e-05
8.870911e-08
6.402953e-08
1.6722638e-05
8.6331944e-08
6.1661053e-08
1.661217e-05
8.4061756e-08
5.9427687e-08
1.6505001e-05
8.1891546e-08
5.7318816e-08
1.640097e-05
7.981494e-08
5.5324848e-08
1.6299929e-05
7.782614e-08
5.3437126e-08
1.620174e-05
7.5919886e-08
5.1647915e-08
1.6106272e-05
7.4091064e-08
4.9950119e-08
1.6013404e-05
7.2334989e-08
4.8337354e-08
1.5923022e-05
7.0647721e-08
4.6803865e-08
1.5835019e-05
6.902571e-08
4.5344265e-08
1.5749294e-05
6.7465528e-08
4.3953715e-08
1.5665753e-05
6.5963796e-08
4.2627712e-08
1.5584307e-05
6.4517349e-08
4.1362199e-08
1.5504871e-05
6.3123419e-08
4.0153363e-08
1.5427365e-05
6.1779284e-08
3.8997801e-08
1.5351716e-05
6.0482526e-08
3.7892292e-08
1.5277852e-05
5.9230819e-08
3.6833874e-08
1.5205705e-05
5.8021997e-08
3.5819719e-08
1.5135212e-05
5.6854018e-08
3.4847363e-08
1.5066313e-05
5.5724994e-08
3.3914337e-08
1.499895e-05
5.4633151e-08
3.3018415e-08
1.493307e-05
5.3576737e-08
3.2157454e-08
1.4868621e-05
5.255419e-08
3.1329414e-08
1.4805554e-05
5.1563973e-08
3.0532452e-08
1.4743823e-05
5.0604506e-08
2.9764692e-08
1.4683385e-05
4.9674275e-08
2.902439e-08
1.4624199e-05
4.8771817e-08
2.8309857e-08
1.4566226e-05
4.789545e-08
2.7619573e-08
1.4509431e-05
4.7043539e-08
2.6951943e-08
1.4453778e-05
4.6214128e-08
2.6305782e-08
1.4399237e-05
4.5405433e-08
2.5679889e-08
1.4345777e-05
4.4615724e-08
2.5073745e-08
1.4293367e-05
4.3844263e-08
2.4487708e-08
1.4241972e-05
4.3092845e-08
2.392374e-08
1.4191548e-05
4.2369887e-08
2.3387163e-08
1.4142019e-05
4.1699306e-08
2.2889642e-08
1.4093249e-05
4.1141618e-08
2.2456622e-08
1.4044951e-05
4.0844635e-08
2.2146538e-08
1.3996485e-05
4.1169201e-08
2.2123041e-08
1.3946229e-05
4.3012309e-08
2.2985407e-08
1.3890149e-05
4.8540277e-08
2.5565801e-08
6.3281546e-08
5.0000855e-08
0.00010603565
2.7876425e-06
6.4750379e-06
0.00010074799
4.4145412e-06
6.5685292e-06
9.5493515e-05
4.8594027e-06
6.1741158e-06
9.0256432e-05
4.930369e-06
5.9581921e-06
8.5101366e-05
4.8311767e-06
5.6908012e-06
8.0102875e-05
4.5561761e-06
5.3445981e-06
7.5322251e-05
4.1469521e-06
4.9614853e-06
7.0803266e-05
3.6678925e-06
4.5689837e-06
6.6576264e-05
3.1701903e-06
4.1811255e-06
6.2660725e-05
2.690011e-06
3.8075976e-06
5.9065443e-05
2.2519319e-06
3.4554566e-06
5.5788936e-05
1.8697304e-06
3.1287958e-06
5.2820978e-05
1.5477473e-06
2.8291458e-06
5.014479e-05
1.2836302e-06
2.5563139e-06
4.7739304e-05
1.07123e-06
2.3091141e-06
4.5581183e-05
9.0281507e-07
2.0858661e-06
4.3646423e-05
7.7048782e-07
1.884709e-06
4.1911533e-05
6.6697376e-07
1.7037793e-06
4.0354306e-05
5.8598199e-07
1.541295e-06
3.8954268e-05
5.2230224e-07
1.3955849e-06
3.769288e-05
4.7175606e-07
1.265091e-06
3.6553576e-05
4.3107984e-07
1.1483634e-06
3.552169e-05
3.9778207e-07
1.0440533e-06
3.4584322e-05
3.6999884e-07
9.5090831e-07
3.3730181e-05
3.4635985e-07
8.6777018e-07
3.2949411e-05
3.2587761e-07
7.9356871e-07
3.2233419e-05
3.0784048e-07
7.2733487e-07
3.1574711e-05
2.9172985e-07
6.6818107e-07
3.0966769e-05
2.7719265e-07
6.1530129e-07
3.0403928e-05
2.6398098e-07
5.679702e-07
2.9881258e-05
2.5190845e-07
5.2554314e-07
2.9394455e-05
2.4082712e-07
4.8745e-07
2.8939761e-05
2.306216e-07
4.531833e-07
2.8513895e-05
2.2120154e-07
4.2229388e-07
2.8113985e-05
2.1249194e-07
3.9438674e-07
2.7737518e-05
2.0442799e-07
3.6911491e-07
2.7382285e-05
1.9695194e-07
3.4617386e-07
2.7046344e-05
1.9001178e-07
3.2529683e-07
2.6727982e-05
1.8355995e-07
3.0625045e-07
2.6425689e-05
1.7755275e-07
2.8883087e-07
2.6138123e-05
1.7195005e-07
2.7285983e-07
2.5864094e-05
1.6671516e-07
2.5818183e-07
2.5602546e-05
1.6181456e-07
2.4466089e-07
2.535253e-05
1.5721709e-07
2.3217767e-07
2.51132e-05
1.5289445e-07
2.2062727e-07
2.4883797e-05
1.4882098e-07
2.0991776e-07
2.4663634e-05
1.4497366e-07
1.9996812e-07
2.4452094e-05
1.4133183e-07
1.9070708e-07
2.4248615e-05
1.3787698e-07
1.8207155e-07
2.405269e-05
1.3459264e-07
1.7400572e-07
2.3863854e-05
1.314646e-07
1.6645989e-07
2.3681684e-05
1.2848057e-07
1.5938926e-07
2.3505794e-05
1.2562917e-07
1.5275414e-07
2.3335829e-05
1.2289868e-07
1.4651973e-07
2.3171462e-05
1.2027632e-07
1.4065462e-07
2.3012394e-05
1.1775471e-07
1.351302e-07
2.2858345e-05
1.1532966e-07
1.299204e-07
2.2709057e-05
1.1299536e-07
1.2500175e-07
2.2564291e-05
1.1074516e-07
1.2035289e-07
2.2423824e-05
1.0857347e-07
1.1595457e-07
2.2287451e-05
1.0647552e-07
1.1178925e-07
2.2154978e-05
1.0444704e-07
1.078408e-07
2.2026226e-05
1.0248421e-07
1.0409461e-07
2.1901025e-05
1.0058351e-07
1.0053715e-07
2.1779218e-05
9.8741562e-08
9.7156157e-08
2.1660658e-05
9.6954908e-08
9.3940267e-08
2.1545205e-05
9.5221264e-08
9.0879051e-08
2.1432729e-05
9.3538772e-08
8.7962813e-08
2.1323107e-05
9.19053e-08
8.5182617e-08
2.1216222e-05
9.0318497e-08
8.2530184e-08
2.1111965e-05
8.8776388e-08
7.9997896e-08
2.1010233e-05
8.7277122e-08
7.7578672e-08
2.0910927e-05
8.5818908e-08
7.5265872e-08
2.0813956e-05
8.4400292e-08
7.3053417e-08
2.0719232e-05
8.3019663e-08
7.093567e-08
2.0626671e-05
8.1675624e-08
6.8907212e-08
2.0536195e-05
8.0366843e-08
6.6963133e-08
2.0447729e-05
7.9091967e-08
6.5098773e-08
2.0361203e-05
7.7849805e-08
6.3309769e-08
2.0276548e-05
7.6639218e-08
6.1592059e-08
2.0193702e-05
7.545903e-08
5.9941721e-08
2.0112602e-05
7.430795e-08
5.8355221e-08
2.0033193e-05
7.3184924e-08
5.6829042e-08
1.9955418e-05
7.208863e-08
5.5359978e-08
1.9879228e-05
7.101762e-08
5.3944883e-08
1.9804572e-05
6.9970424e-08
5.2580736e-08
1.9731406e-05
6.8945263e-08
5.1264772e-08
1.9659685e-05
6.7940126e-08
4.9994398e-08
1.958937e-05
6.6953025e-08
4.8767009e-08
1.9520423e-05
6.5982381e-08
4.7580537e-08
1.9452806e-05
6.5028027e-08
4.6433112e-08
1.9386481e-05
6.4094113e-08
4.5323757e-08
1.9321404e-05
6.3194664e-08
4.4253069e-08
1.9257511e-05
6.2366329e-08
4.32252e-08
1.9194705e-05
6.1695162e-08
4.2253146e-08
1.9132798e-05
6.1374071e-08
4.1377402e-08
1.9071394e-05
6.1822426e-08
4.0750659e-08
1.9009424e-05
6.3924736e-08
4.1057608e-08
1.8944661e-05
6.9304696e-08
4.3998815e-08
7.917093e-08
7.4661559e-08
0.0001054937
1.9169871e-06
6.4880406e-06
0.00010005365
3.2729596e-06
6.5816334e-06
9.4926077e-05
3.8288995e-06
6.1580776e-06
8.9946373e-05
3.9838108e-06
5.9262629e-06
8.5163276e-05
3.9595077e-06
5.6547657e-06
8.0619137e-05
3.7899368e-06
5.3103784e-06
7.6329462e-05
3.5015547e-06
4.9350725e-06
7.230016e-05
3.1412013e-06
4.5559928e-06
6.8534206e-05
2.7514802e-06
4.1846641e-06
6.5032983e-05
2.3633493e-06
3.8278853e-06
6.1795789e-05
1.9984144e-06
3.490711e-06
5.8818843e-05
1.670376e-06
3.176301e-06
5.6094717e-05
1.3858295e-06
2.886043e-06
5.3612488e-05
1.1457945e-06
2.6200649e-06
5.1358373e-05
9.4764122e-07
2.3777043e-06
4.9316593e-05
7.8676786e-07
2.1578272e-06
4.7470246e-05
6.5779546e-07
1.9590391e-06
4.5802069e-05
5.5532542e-07
1.7798252e-06
4.4295042e-05
4.7437116e-07
1.6186378e-06
4.293283e-05
4.1056669e-07
1.473948e-06
4.1700078e-05
3.6023238e-07
1.3442759e-06
4.0582591e-05
3.2035744e-07
1.2282094e-06
3.956742e-05
2.8853737e-07
1.1244154e-06
3.8642881e-05
2.6289063e-07
1.0316467e-06
3.7798527e-05
2.4196983e-07
9.4874402e-07
3.7025076e-05
2.2467706e-07
8.7465172e-07
3.6314324e-05
2.1018902e-07
8.0840413e-07
3.5659057e-05
1.9788605e-07
7.4911041e-07
3.5052961e-05
1.8731583e-07
6.9597284e-07
3.4490519e-05
1.7814868e-07
6.4827381e-07
3.3966922e-05
1.7013169e-07
6.0537439e-07
3.3477973e-05
1.6306726e-07
5.6670866e-07
3.3020016e-05
1.5680298e-07
5.3177541e-07
3.2589865e-05
1.5122053e-07
5.0013241e-07
3.218474e-05
1.462256e-07
4.7139136e-07
3.1802215e-05
1.4174073e-07
4.4521235e-07
3.1440168e-05
1.3770093e-07
4.2129811e-07
3.1096739e-05
1.3405096e-07
3.9938928e-07
3.0770297e-05
1.3074297e-07
3.7925956e-07
3.0459402e-05
1.2773517e-07
3.6071197e-07
3.0162787e-05
1.2499094e-07
3.435748e-07
2.9879325e-05
1.2247786e-07
3.276985e-07
2.960802e-05
1.2016732e-07
3.1295271e-07
2.934798e-05
1.1803381e-07
2.9922354e-07
2.9098408e-05
1.1605462e-07
2.864114e-07
2.885859e-05
1.1420981e-07
2.7442905e-07
2.8627882e-05
1.1248192e-07
2.632e-07
2.8405701e-05
1.108556e-07
2.5265686e-07
2.819152e-05
1.0931759e-07
2.4274024e-07
2.7984859e-05
1.0785648e-07
2.3339757e-07
2.7785279e-05
1.0646277e-07
2.2458212e-07
2.7592378e-05
1.0512868e-07
2.1625214e-07
2.740579e-05
1.0384735e-07
2.0837037e-07
2.7225174e-05
1.0261118e-07
2.009036e-07
2.705022e-05
1.0140746e-07
1.9382258e-07
2.6880641e-05
1.0023384e-07
1.8710041e-07
2.6716166e-05
9.9092331e-08
1.8071225e-07
2.6556546e-05
9.7979994e-08
1.7463559e-07
2.6401548e-05
9.6892496e-08
1.6885013e-07
2.6250957e-05
9.5827084e-08
1.6333742e-07
2.610457e-05
9.4781717e-08
1.5808043e-07
2.5962199e-05
9.375475e-08
1.5306361e-07
2.5823666e-05
9.2744894e-08
1.4827262e-07
2.5688804e-05
9.1751028e-08
1.4369411e-07
2.5557458e-05
9.0771768e-08
1.3931598e-07
2.5429481e-05
8.9805198e-08
1.3512692e-07
2.5304734e-05
8.8851469e-08
1.3111645e-07
2.5183087e-05
8.7911224e-08
1.2727471e-07
2.5064416e-05
8.6983897e-08
1.2359244e-07
2.4948604e-05
8.606887e-08
1.200612e-07
2.4835542e-05
8.516578e-08
1.1667304e-07
2.4725124e-05
8.4274326e-08
1.1342047e-07
2.4617252e-05
8.339426e-08
1.1029657e-07
2.4511832e-05
8.2525442e-08
1.072948e-07
2.4408775e-05
8.1667742e-08
1.0440899e-07
2.4307997e-05
8.0820949e-08
1.0163344e-07
2.4209416e-05
7.9985018e-08
9.8962665e-08
2.4112956e-05
7.9159755e-08
9.639157e-08
2.4018546e-05
7.8345023e-08
9.3915295e-08
2.3926115e-05
7.7540691e-08
9.1529306e-08
2.3835598e-05
7.6746567e-08
8.9229249e-08
2.3746933e-05
7.5962303e-08
8.7011037e-08
2.3660059e-05
7.5187625e-08
8.4870682e-08
2.3574922e-05
7.4421969e-08
8.2804554e-08
2.3491466e-05
7.3664627e-08
8.0808925e-08
2.3409641e-05
7.2914619e-08
7.888039e-08
2.33294e-05
7.2170672e-08
7.7015491e-08
2.3250698e-05
7.1431296e-08
7.5211041e-08
2.3173492e-05
7.0694889e-08
7.3463638e-08
2.3097744e-05
6.9960219e-08
7.1770102e-08
2.3023418e-05
6.922801e-08
7.0127038e-08
2.2950477e-05
6.850352e-08
6.853119e-08
2.2878889e-05
6.780287e-08
6.6979699e-08
2.2808619e-05
6.716505e-08
6.5471573e-08
2.2739625e-05
6.6675256e-08
6.4013352e-08
2.267185e-05
6.6507066e-08
6.2642326e-08
2.2605149e-05
6.6990736e-08
6.1532381e-08
2.2538888e-05
6.8686033e-08
6.1499879e-08
2.2471121e-05
7.2226978e-08
6.4845103e-08
7.6722857e-08
9.846131e-08
0.0001051979
1.3340885e-06
6.4961221e-06
9.9496561e-05
2.3731022e-06
6.6011947e-06
9.4262459e-05
2.9019223e-06
6.1610799e-06
8.9251186e-05
3.0856641e-06
5.9094196e-06
8.4493497e-05
3.0947346e-06
5.6224614e-06
8.0033635e-05
2.9846656e-06
5.2651341e-06
7.5876907e-05
2.7790155e-06
4.8792667e-06
7.2014635e-05
2.5106844e-06
4.4927895e-06
6.8436293e-05
2.2128728e-06
4.1169489e-06
6.5131387e-05
1.9107259e-06
3.7575292e-06
6.208941e-05
1.6217321e-06
3.4186596e-06
5.9299432e-05
1.3573878e-06
3.1029661e-06
5.6749589e-05
1.1240344e-06
2.8116387e-06
5.4426788e-05
9.2377951e-07
2.5448158e-06
5.2316754e-05
7.55728e-07
2.3019466e-06
5.0404313e-05
6.1717855e-07
2.0820302e-06
4.8673788e-05
5.045435e-07
1.8837772e-06
4.7109414e-05
4.1397182e-07
1.7057274e-06
4.5695713e-05
3.417365e-07
1.5463363e-06
4.4417792e-05
2.8445145e-07
1.4040359e-06
4.3261575e-05
2.3917111e-07
1.2772781e-06
4.2213952e-05
2.0341504e-07
1.1645652e-06
4.1262871e-05
1.7514742e-07
1.0644718e-06
4.039737e-05
1.5273236e-07
9.7565899e-07
3.9607583e-05
1.3487529e-07
8.9688146e-07
3.8884688e-05
1.2055569e-07
8.2701641e-07
3.8220848e-05
1.0901091e-07
7.6501858e-07
3.7609155e-05
9.9633855e-08
7.0994489e-07
3.7043542e-05
9.1977451e-08
6.6095087e-07
3.6518702e-05
8.5705808e-08
6.1728289e-07
3.6030009e-05
8.0552372e-08
5.7827306e-07
3.5573433e-05
7.6308292e-08
5.4333414e-07
3.5145475e-05
7.2811292e-08
5.1195025e-07
3.4743091e-05
6.9934125e-08
4.8367021e-07
3.4363641e-05
6.7575412e-08
4.5810063e-07
3.4004828e-05
6.5652887e-08
4.3489997e-07
3.3664659e-05
6.4098564e-08
4.1377209e-07
3.3341393e-05
6.2855903e-08
3.9446096e-07
3.3033513e-05
6.1877001e-08
3.7674528e-07
3.2739693e-05
6.1121084e-08
3.6043425e-07
3.2458768e-05
6.0553055e-08
3.4536328e-07
3.2189712e-05
6.0142674e-08
3.3139055e-07
3.1931622e-05
5.9863668e-08
3.1839374e-07
3.1683696e-05
5.9693163e-08
3.0626733e-07
3.1445219e-05
5.9611222e-08
2.9492012e-07
3.1215555e-05
5.9600616e-08
2.8427313e-07
3.0994132e-05
5.9646569e-08
2.7425806e-07
3.0780436e-05
5.9736158e-08
2.648154e-07
3.0574002e-05
5.9858635e-08
2.5589335e-07
3.0374407e-05
6.0004898e-08
2.4744659e-07
3.0181267e-05
6.0167622e-08
2.3943548e-07
2.9994229e-05
6.0341244e-08
2.3182485e-07
2.9812971e-05
6.0521789e-08
2.2458373e-07
2.9637193e-05
6.0704469e-08
2.1768452e-07
2.9466629e-05
6.0867273e-08
2.1110456e-07
2.9301024e-05
6.1016972e-08
2.0482178e-07
2.914014e-05
6.1160833e-08
1.9881568e-07
2.8983756e-05
6.1294901e-08
1.9306836e-07
2.8831669e-05
6.1415442e-08
1.8756388e-07
2.8683688e-05
6.1520937e-08
1.8228763e-07
2.8539633e-05
6.1610559e-08
1.7722635e-07
2.8399336e-05
6.16838e-08
1.7236784e-07
2.8262639e-05
6.1740489e-08
1.6770088e-07
2.8129394e-05
6.1780671e-08
1.6321517e-07
2.7999461e-05
6.1803892e-08
1.5890121e-07
2.7872709e-05
6.1807378e-08
1.5475037e-07
2.7749012e-05
6.1793598e-08
1.5075445e-07
2.7628253e-05
6.1764811e-08
1.4690561e-07
2.7510319e-05
6.1720975e-08
1.4319662e-07
2.7395105e-05
6.1662133e-08
1.3962086e-07
2.728251e-05
6.1588613e-08
1.3617203e-07
2.7172439e-05
6.150106e-08
1.3284425e-07
2.7064802e-05
6.1399962e-08
1.2963193e-07
2.6959511e-05
6.1285905e-08
1.2652993e-07
2.6856486e-05
6.1159506e-08
1.2353326e-07
2.6755649e-05
6.102129e-08
1.2063732e-07
2.6656924e-05
6.0871836e-08
1.1783767e-07
2.6560242e-05
6.0711709e-08
1.1513015e-07
2.6465535e-05
6.054138e-08
1.1251078e-07
2.6372738e-05
6.0361327e-08
1.0997579e-07
2.6281791e-05
6.0171931e-08
1.0752159e-07
2.6192636e-05
5.9973554e-08
1.0514471e-07
2.6105215e-05
5.9766322e-08
1.0284183e-07
2.6019477e-05
5.9550262e-08
1.0060972e-07
2.5935371e-05
5.9325133e-08
9.8445302e-08
2.585285e-05
5.9090496e-08
9.6345369e-08
2.5771868e-05
5.8845472e-08
9.4306942e-08
2.5692384e-05
5.858902e-08
9.232674e-08
2.5614357e-05
5.8319829e-08
9.0401439e-08
2.5537753e-05
5.8037085e-08
8.852735e-08
2.5462539e-05
5.7741644e-08
8.6700248e-08
2.5388689e-05
5.7438428e-08
8.4915167e-08
2.5316184e-05
5.7141409e-08
8.3166595e-08
2.5245017e-05
5.6882554e-08
8.1449651e-08
2.51752e-05
5.6726049e-08
7.9765802e-08
2.510677e-05
5.6787906e-08
7.8149195e-08
2.5039728e-05
5.725158e-08
7.6780978e-08
2.4973573e-05
5.8330927e-08
7.6510212e-08
2.4906079e-05
5.9989462e-08
7.9732166e-08
6.0715012e-08
1.1287822e-07
0.00010503672
9.0789371e-07
6.5005614e-06
9.9140653e-05
1.6524914e-06
6.6166802e-06
9.3788329e-05
2.0825241e-06
6.1717217e-06
8.8708526e-05
2.2549373e-06
5.91053e-06
8.3909682e-05
2.2784039e-06
5.6151748e-06
7.9437109e-05
2.2074821e-06
5.2497564e-06
7.5296201e-05
2.0645348e-06
4.8553893e-06
7.1474034e-05
1.8722543e-06
4.460597e-06
6.7955013e-05
1.6547667e-06
4.0771269e-06
6.4723621e-05
1.4313505e-06
3.7107669e-06
6.1764423e-05
1.2154297e-06
3.3655007e-06
5.9062056e-05
1.0158641e-06
3.0438911e-06
5.6601108e-05
8.3782746e-07
2.7471548e-06
5.4365944e-05
6.8344649e-07
2.475497e-06
5.2340648e-05
5.5258528e-07
2.2284383e-06
5.0509125e-05
4.436655e-07
2.0050361e-06
4.8855299e-05
3.5433454e-07
1.8040352e-06
4.7363353e-05
2.819359e-07
1.6239821e-06
4.6017963e-05
2.2381344e-07
1.4633127e-06
4.4804502e-05
1.7749382e-07
1.3204181e-06
4.3709199e-05
1.4078094e-07
1.1936935e-06
4.2719248e-05
1.1179153e-07
1.081575e-06
4.1822875e-05
8.8954536e-08
9.8256584e-07
4.1009364e-05
7.0988002e-08
8.9525472e-07
4.0269054e-05
5.6861844e-08
8.1832381e-07
3.9593306e-05
4.5719135e-08
7.5058473e-07
3.8974405e-05
3.6977863e-08
6.9093436e-07
3.8405585e-05
3.006737e-08
6.3838631e-07
3.7880869e-05
2.4650859e-08
5.9204243e-07
3.7395029e-05
2.0439976e-08
5.5110604e-07
3.6943514e-05
1.7190279e-08
5.1487714e-07
3.6522366e-05
1.4716739e-08
4.8273957e-07
3.6128148e-05
1.2874764e-08
4.541539e-07
3.5757883e-05
1.1549883e-08
4.2864943e-07
3.5408991e-05
1.065079e-08
4.0581705e-07
3.5079238e-05
1.010362e-08
3.853023e-07
3.4766689e-05
9.8482221e-09
3.6679876e-07
3.4469668e-05
9.8350716e-09
3.5004236e-07
3.4186716e-05
1.0022904e-08
3.3480551e-07
3.3916567e-05
1.0377037e-08
3.2089287e-07
3.3658116e-05
1.0868081e-08
3.0813658e-07
3.3410395e-05
1.1470993e-08
2.9639283e-07
3.3172556e-05
1.2164215e-08
2.8553824e-07
3.2943852e-05
1.2929282e-08
2.7546717e-07
3.2723625e-05
1.3750147e-08
2.6608894e-07
3.2511286e-05
1.4613064e-08
2.5732573e-07
3.2306316e-05
1.550623e-08
2.4911065e-07
3.2108246e-05
1.6419597e-08
2.4138622e-07
3.1916658e-05
1.7344639e-08
2.3410269e-07
3.1731171e-05
1.8274304e-08
2.2721714e-07
3.1551444e-05
1.920318e-08
2.2069214e-07
3.1377162e-05
2.0127713e-08
2.1449505e-07
3.1208038e-05
2.1048649e-08
2.085968e-07
3.10438e-05
2.197272e-08
2.0297052e-07
3.0884232e-05
2.282783e-08
1.9760736e-07
3.0729103e-05
2.3662951e-08
1.9248228e-07
3.05782e-05
2.4489997e-08
1.8757381e-07
3.0431331e-05
2.5296283e-08
1.8286762e-07
3.0288318e-05
2.607801e-08
1.7835077e-07
3.0148994e-05
2.6834297e-08
1.7401108e-07
3.0013202e-05
2.7564662e-08
1.6983753e-07
2.9880797e-05
2.8268956e-08
1.6582024e-07
2.975164e-05
2.8947409e-08
1.6195013e-07
2.96256e-05
2.9600753e-08
1.5821894e-07
2.9502557e-05
3.0228582e-08
1.5461918e-07
2.9382396e-05
3.0823626e-08
1.5114467e-07
2.9265007e-05
3.1393151e-08
1.4778879e-07
2.9150287e-05
3.1939599e-08
1.4454538e-07
2.9038137e-05
3.2461888e-08
1.4140899e-07
2.8928465e-05
3.2960074e-08
1.383746e-07
2.8821181e-05
3.3434701e-08
1.3543752e-07
2.8716203e-05
3.3886368e-08
1.325933e-07
2.8613449e-05
3.4315559e-08
1.298379e-07
2.8512845e-05
3.4722853e-08
1.2716737e-07
2.8414317e-05
3.5108942e-08
1.2457816e-07
2.8317797e-05
3.5474432e-08
1.2206682e-07
2.8223219e-05
3.5819859e-08
1.196301e-07
2.813052e-05
3.6145899e-08
1.1726493e-07
2.803964e-05
3.6453067e-08
1.1496842e-07
2.7950522e-05
3.6741869e-08
1.1273773e-07
2.7863111e-05
3.7012828e-08
1.1057028e-07
2.7777354e-05
3.7266297e-08
1.0846343e-07
2.7693204e-05
3.7502493e-08
1.0641474e-07
2.761061e-05
3.772163e-08
1.0442174e-07
2.752953e-05
3.7923586e-08
1.0248202e-07
2.7449919e-05
3.8108022e-08
1.0059308e-07
2.7371738e-05
3.8274291e-08
9.8752308e-08
2.7294949e-05
3.8421534e-08
9.6956862e-08
2.7219516e-05
3.8548726e-08
9.5203628e-08
2.714541e-05
3.8655131e-08
9.3488646e-08
2.7072603e-05
3.8741163e-08
9.1806947e-08
2.7001079e-05
3.8810271e-08
9.015232e-08
2.6930832e-05
3.8872142e-08
8.8516562e-08
2.6861876e-05
3.8947372e-08
8.6890521e-08
2.679426e-05
3.9073549e-08
8.5269169e-08
2.6728065e-05
3.930698e-08
8.3675924e-08
2.6663337e-05
3.9708374e-08
8.2271168e-08
2.659956e-05
4.0272027e-08
8.1836184e-08
2.6534295e-05
4.0698053e-08
8.4555733e-08
3.9620866e-08
1.1507132e-07
0.00010494757
5.681108e-07
6.5033076e-06
9.8925416e-05
1.0462983e-06
6.6283517e-06
9.3480449e-05
1.3439844e-06
6.1835065e-06
8.8341777e-05
1.4751324e-06
5.9184763e-06
8.3502084e-05
1.4993911e-06
5.6187065e-06
7.9004057e-05
1.4572411e-06
5.2482679e-06
7.4853978e-05
1.3667382e-06
4.8478757e-06
7.1037378e-05
1.2423974e-06
4.4464569e-06
6.7536063e-05
1.0997693e-06
4.0563127e-06
6.4331998e-05
9.519236e-07
3.683491e-06
6.1407318e-05
8.0805756e-07
3.3320524e-06
5.8744339e-05
6.7422199e-07
3.0046209e-06
5.6325632e-05
5.5404394e-07
2.7024907e-06
5.4133973e-05
4.4916743e-07
2.4259383e-06
5.2152298e-05
3.5972398e-07
2.174536e-06
5.0363747e-05
2.8484509e-07
1.9473717e-06
4.875178e-05
2.2310003e-07
1.7432015e-06
4.7300339e-05
1.7281167e-07
1.5605647e-06
4.5994012e-05
1.3226574e-07
1.3978748e-06
4.4818177e-05
9.9840035e-08
1.2534891e-06
4.3759121e-05
7.407561e-08
1.1257614e-06
4.2804123e-05
5.3707636e-08
1.0130814e-06
4.1941503e-05
3.7671205e-08
9.1390374e-07
4.1160627e-05
2.5096468e-08
8.2676731e-07
4.0451891e-05
1.5294194e-08
7.5030387e-07
3.980679e-05
7.528208e-09
6.8329172e-07
3.9217543e-05
1.6727664e-09
6.2455202e-07
3.8677513e-05
-3.0331151e-09
5.731308e-07
3.8180739e-05
-6.648663e-09
5.2807353e-07
3.7722004e-05
-9.359523e-09
4.8853448e-07
3.7296777e-05
-1.1371807e-08
4.5378926e-07
3.6901112e-05
-1.2818231e-08
4.2319913e-07
3.6531588e-05
-1.3805292e-08
3.9620481e-07
3.6185236e-05
-1.4417461e-08
3.7231875e-07
3.5859491e-05
-1.472189e-08
3.5111774e-07
3.5552132e-05
-1.4772638e-08
3.3223581e-07
3.5261237e-05
-1.4613943e-08
3.1535729e-07
3.4985143e-05
-1.4282203e-08
3.0021089e-07
3.472241e-05
-1.3807715e-08
2.8656373e-07
3.4471786e-05
-1.3215885e-08
2.742163e-07
3.4232185e-05
-1.2528195e-08
2.6299766e-07
3.4002657e-05
-1.1762809e-08
2.5276172e-07
3.3782373e-05
-1.0935227e-08
2.4338336e-07
3.3570606e-05
-1.0058751e-08
2.3475555e-07
3.3366714e-05
-9.144735e-09
2.2678673e-07
3.3170131e-05
-8.2028085e-09
2.1939833e-07
3.2980356e-05
-7.2412576e-09
2.1252301e-07
3.279694e-05
-6.2668962e-09
2.061028e-07
3.2619482e-05
-5.2855696e-09
2.0008782e-07
3.2447623e-05
-4.3018308e-09
1.9443481e-07
3.228104e-05
-3.3190577e-09
1.8910586e-07
3.2119438e-05
-2.3383177e-09
1.8406732e-07
3.1962554e-05
-1.3530597e-09
1.7928648e-07
3.1810075e-05
-2.7634764e-10
1.7472766e-07
3.1661878e-05
5.8581331e-10
1.7043903e-07
3.1517732e-05
1.4355884e-09
1.6637293e-07
3.1377429e-05
2.3038211e-09
1.6248958e-07
3.1240792e-05
3.1586149e-09
1.5877485e-07
3.1107656e-05
3.9969638e-09
1.5521717e-07
3.0977867e-05
4.8171888e-09
1.5180548e-07
3.0851284e-05
5.6179523e-09
1.4852969e-07
3.0727773e-05
6.3990213e-09
1.4538077e-07
3.0607209e-05
7.1609108e-09
1.4235053e-07
3.0489473e-05
7.905939e-09
1.3943121e-07
3.037445e-05
8.6357277e-09
1.366158e-07
3.0262049e-05
9.3206593e-09
1.3390396e-07
3.0152163e-05
9.9938236e-09
1.3128568e-07
3.0044697e-05
1.0650398e-08
1.2875512e-07
2.9939564e-05
1.1286743e-08
1.2630827e-07
2.983668e-05
1.1903204e-08
1.2394087e-07
2.9735965e-05
1.2500146e-08
1.2164886e-07
2.9637345e-05
1.3077883e-08
1.1942843e-07
2.9540748e-05
1.3636721e-08
1.1727619e-07
2.9446105e-05
1.417703e-08
1.1518885e-07
2.9353352e-05
1.4699147e-08
1.1316339e-07
2.9262425e-05
1.5203531e-08
1.1119703e-07
2.9173268e-05
1.5690504e-08
1.0928709e-07
2.9085822e-05
1.6160425e-08
1.0743108e-07
2.9000035e-05
1.6613597e-08
1.0562665e-07
2.8915855e-05
1.7050399e-08
1.0387154e-07
2.8833233e-05
1.7471125e-08
1.0216364e-07
2.8752123e-05
1.7875977e-08
1.005008e-07
2.8672479e-05
1.8265111e-08
9.8881119e-08
2.8594259e-05
1.8638538e-08
9.73025e-08
2.8517424e-05
1.8996225e-08
9.5762953e-08
2.8441934e-05
1.9337803e-08
9.4260343e-08
2.8367753e-05
1.9662797e-08
9.2792328e-08
2.8294847e-05
1.9970462e-08
9.1356249e-08
2.8223187e-05
2.0260026e-08
8.9948855e-08
2.8152746e-05
2.0530722e-08
8.8565926e-08
2.8083503e-05
2.0782597e-08
8.7201804e-08
2.8015447e-05
2.101753e-08
8.5848696e-08
2.7948582e-05
2.1240757e-08
8.4495834e-08
2.7882937e-05
2.1462764e-08
8.3129512e-08
2.7818574e-05
2.1700018e-08
8.1736496e-08
2.7755588e-05
2.1969289e-08
8.0324348e-08
2.7694014e-05
2.2266174e-08
7.9016058e-08
2.7633299e-05
2.2506283e-08
7.8480659e-08
2.7571004e-05
2.2393413e-08
8.0599484e-08
2.0993102e-08
1.0779947e-07
0.00010489986
2.7443378e-07
6.5049155e-06
9.8802772e-05
5.0716635e-07
6.6362236e-06
9.329591e-05
6.5854975e-07
6.1922972e-06
8.8116302e-05
7.2902547e-07
5.9257148e-06
8.3248198e-05
7.4378813e-07