/*--------------------------------*- C++ -*----------------------------------*\
  =========                 |
  \\      /  F ield         | OpenFOAM: The Open Source CFD Toolbox
   \\    /   O peration     | Website:  https://openfoam.org
    \\  /    A nd           | Version:  7
     \\/     M anipulation  |
\*---------------------------------------------------------------------------*/
FoamFile
{
    version     2.0;
    format      ascii;
    class       volVectorField;
    location    "250/water";
    object      U;
}
// * * * * * * * * * * * * * * * * * * * * * * * * * * * * * * * * * * * * * //

dimensions      [0 1 -1 0 0 0 0];

internalField   nonuniform List<vector> 
54000
(
(0.0090020934 0.00020305973 0.00020444027)
(0.0083186447 0.00023622738 0.00023904411)
(0.0073695241 0.00021363852 0.00021763527)
(0.0063566114 0.00018488016 0.00018965819)
(0.0054486673 0.00015530835 0.00016048633)
(0.0046741594 0.00012529952 0.00013052937)
(0.0040193038 9.7052611e-05 0.00010203017)
(0.0034740067 7.2578999e-05 7.7073287e-05)
(0.0030302461 5.2876127e-05 5.6738329e-05)
(0.0026757323 3.806815e-05 4.1216512e-05)
(0.0023947254 2.7637703e-05 3.003714e-05)
(0.0021713898 2.0689033e-05 2.2336508e-05)
(0.0019919695 1.623616e-05 1.7152703e-05)
(0.0018455015 1.3416236e-05 1.3643172e-05)
(0.0017237326 1.158249e-05 1.1179122e-05)
(0.0016206928 1.0304892e-05 9.3455805e-06)
(0.0015321593 9.3257901e-06 7.895715e-06)
(0.0014551546 8.5052973e-06 6.695311e-06)
(0.0013875459 7.774634e-06 5.6760587e-06)
(0.0013277612 7.1034282e-06 4.8034856e-06)
(0.001274601 6.4798501e-06 4.0581567e-06)
(0.0012271179 5.8999457e-06 3.4261578e-06)
(0.0011845424 5.3625309e-06 2.8950723e-06)
(0.001146235 4.8670209e-06 2.4526298e-06)
(0.0011116558 4.4125996e-06 2.0869763e-06)
(0.0010803434 3.9980125e-06 1.7867451e-06)
(0.0010519002 3.6214599e-06 1.5416124e-06)
(0.0010259819 3.2805934e-06 1.3421854e-06)
(0.001002289 2.9733953e-06 1.1797314e-06)
(0.00098056199 2.6979487e-06 1.04632e-06)
(0.00096057571 2.4519204e-06 9.3658901e-07)
(0.00094213242 2.2325671e-06 8.4693386e-07)
(0.00092505792 2.0373865e-06 7.7316665e-07)
(0.00090920047 1.8640896e-06 7.118424e-07)
(0.00089442818 1.7104638e-06 6.6046769e-07)
(0.0008806259 1.5743822e-06 6.1707335e-07)
(0.00086769294 1.4538614e-06 5.800534e-07)
(0.00085554128 1.3470709e-06 5.4811421e-07)
(0.00084409387 1.2523507e-06 5.2023874e-07)
(0.00083328322 1.1681989e-06 4.9562767e-07)
(0.00082305015 1.0932627e-06 4.7365344e-07)
(0.00081334267 1.0262296e-06 4.5378207e-07)
(0.00080411486 9.6585885e-07 4.3554371e-07)
(0.00079532615 9.1131141e-07 4.1865063e-07)
(0.0007869407 8.6191662e-07 4.0290805e-07)
(0.00077892675 8.170834e-07 3.8816923e-07)
(0.00077125602 7.7627657e-07 3.7432109e-07)
(0.0007639033 7.3902604e-07 3.6127678e-07)
(0.00075684597 7.0491428e-07 3.4896398e-07)
(0.00075006373 6.7357622e-07 3.3733167e-07)
(0.00074353821 6.4469364e-07 3.2633701e-07)
(0.00073725293 6.180254e-07 3.158189e-07)
(0.00073119313 5.9334764e-07 3.0574375e-07)
(0.00072534528 5.7041923e-07 2.962109e-07)
(0.00071969687 5.4902471e-07 2.8716636e-07)
(0.00071423652 5.2901413e-07 2.7854326e-07)
(0.00070895385 5.1027401e-07 2.7031128e-07)
(0.00070383928 4.9268782e-07 2.624484e-07)
(0.00069888397 4.761445e-07 2.5493311e-07)
(0.00069407976 4.6054907e-07 2.4774299e-07)
(0.00068941911 4.4581995e-07 2.4086395e-07)
(0.00068489502 4.3188446e-07 2.3427637e-07)
(0.00068050097 4.1867916e-07 2.2796405e-07)
(0.00067623091 4.0614725e-07 2.2191178e-07)
(0.00067207915 3.9423479e-07 2.1610559e-07)
(0.00066804042 3.8289726e-07 2.1053119e-07)
(0.00066410976 3.7209422e-07 2.051775e-07)
(0.00066028251 3.6179379e-07 2.0003251e-07)
(0.00065655429 3.5196302e-07 1.9508209e-07)
(0.00065292099 3.4256951e-07 1.9031809e-07)
(0.00064937872 3.3358596e-07 1.8572947e-07)
(0.00064592384 3.2498739e-07 1.8130571e-07)
(0.00064255288 3.1675092e-07 1.7704128e-07)
(0.0006392626 3.0885627e-07 1.7292539e-07)
(0.00063604992 3.0128297e-07 1.6895147e-07)
(0.00063291191 2.9401356e-07 1.6511132e-07)
(0.00062984582 2.8703207e-07 1.6139734e-07)
(0.00062684903 2.803216e-07 1.5780269e-07)
(0.00062391907 2.7387137e-07 1.5432095e-07)
(0.00062105358 2.6766608e-07 1.5094151e-07)
(0.00061825034 2.6169564e-07 1.4766099e-07)
(0.00061550726 2.559452e-07 1.4446917e-07)
(0.00061282235 2.5040645e-07 1.4135965e-07)
(0.00061019372 2.4506834e-07 1.3832464e-07)
(0.00060761964 2.3991919e-07 1.3535538e-07)
(0.00060509845 2.3494663e-07 1.3244803e-07)
(0.00060262862 2.3013544e-07 1.2959765e-07)
(0.00060020872 2.2547029e-07 1.2680427e-07)
(0.00059783743 2.2093102e-07 1.240753e-07)
(0.00059551347 2.1649834e-07 1.2143415e-07)
(0.00059323554 2.121489e-07 1.1892935e-07)
(0.00059100213 2.0787155e-07 1.1666267e-07)
(0.00058881113 2.036903e-07 1.1483097e-07)
(0.00058665897 1.9973091e-07 1.1381967e-07)
(0.00058453869 1.9638406e-07 1.1441132e-07)
(0.00058243501 1.9487277e-07 1.1837279e-07)
(0.00058031395 1.9977432e-07 1.3094337e-07)
(0.0005781161 2.2258487e-07 1.6397551e-07)
(0.00057566368 1.970695e-07 1.5080628e-07)
(0.000569062 7.8896364e-07 7.5322557e-07)
(0.0095316863 0.0003313754 0.00022336697)
(0.0092716504 0.00041105942 0.00027052342)
(0.0087756651 0.00040317187 0.00026060062)
(0.0081527518 0.00038218754 0.00024252081)
(0.0075302151 0.00035309574 0.00022101124)
(0.0069425889 0.00031541062 0.00019648834)
(0.006391209 0.00027309198 0.00017102969)
(0.0058791845 0.00023030694 0.00014652546)
(0.0054120202 0.00019001855 0.00012410998)
(0.0049926512 0.00015423459 0.00010436627)
(0.004620592 0.00012408347 8.7479017e-05)
(0.0042931332 9.9809402e-05 7.3327495e-05)
(0.0040063965 8.0956424e-05 6.1601503e-05)
(0.0037559538 6.6672211e-05 5.1918795e-05)
(0.0035372541 5.5985802e-05 4.3907444e-05)
(0.003345947 4.7992057e-05 3.7246645e-05)
(0.0031780884 4.1941711e-05 3.1677529e-05)
(0.0030302311 3.7262447e-05 2.699792e-05)
(0.0028994324 3.3540997e-05 2.3051138e-05)
(0.0027832152 3.0490245e-05 1.9714593e-05)
(0.0026795075 2.7915735e-05 1.6890543e-05)
(0.0025865783 2.5687842e-05 1.4499383e-05)
(0.002502978 2.3720894e-05 1.2475016e-05)
(0.0024274871 2.1958431e-05 1.0761725e-05)
(0.0023590736 2.0362993e-05 9.3122316e-06)
(0.0022968589 1.8909454e-05 8.0861295e-06)
(0.0022400906 1.7580768e-05 7.0489622e-06)
(0.0021881216 1.6364897e-05 6.1714974e-06)
(0.0021403932 1.5251962e-05 5.4283142e-06)
(0.0020964214 1.4233848e-05 4.7973497e-06)
(0.0020557868 1.330304e-05 4.2604817e-06)
(0.0020181236 1.2451987e-05 3.802704e-06)
(0.0019831119 1.1673909e-05 3.4109611e-06)
(0.0019504718 1.0962756e-05 3.0744211e-06)
(0.0019199589 1.0312856e-05 2.7842607e-06)
(0.0018913593 9.7188339e-06 2.53318e-06)
(0.0018644851 9.1756449e-06 2.3150743e-06)
(0.0018391716 8.6785716e-06 2.1248318e-06)
(0.0018152735 8.2232434e-06 1.9581837e-06)
(0.0017926629 7.805622e-06 1.8115675e-06)
(0.0017712268 7.4219995e-06 1.6820112e-06)
(0.001750865 7.0689379e-06 1.5670702e-06)
(0.0017314886 6.7432688e-06 1.4647424e-06)
(0.0017130186 6.442274e-06 1.3732761e-06)
(0.0016953848 6.1635571e-06 1.2911607e-06)
(0.0016785241 5.9049787e-06 1.2171196e-06)
(0.00166238 5.6646099e-06 1.1500841e-06)
(0.0016469019 5.4407249e-06 1.0891499e-06)
(0.001632044 5.2317766e-06 1.0335537e-06)
(0.0016177648 5.0363852e-06 9.8265433e-07)
(0.0016040271 4.8533221e-06 9.3589459e-07)
(0.0015907965 4.6815627e-06 8.9273789e-07)
(0.0015780424 4.5201575e-06 8.5278703e-07)
(0.0015657364 4.3681544e-06 8.1577056e-07)
(0.0015538526 4.2246827e-06 7.8138499e-07)
(0.0015423672 4.0890603e-06 7.4934537e-07)
(0.0015312583 3.9607291e-06 7.1941205e-07)
(0.0015205058 3.8391525e-06 6.9138706e-07)
(0.0015100909 3.7238119e-06 6.6509417e-07)
(0.0014999963 3.6142422e-06 6.4037931e-07)
(0.001490206 3.5100294e-06 6.1710845e-07)
(0.0014807053 3.4107985e-06 5.9516061e-07)
(0.00147148 3.3162111e-06 5.7442763e-07)
(0.0014625175 3.2259608e-06 5.5481504e-07)
(0.0014538055 3.1397561e-06 5.3623551e-07)
(0.0014453328 3.0573352e-06 5.1861236e-07)
(0.0014370889 2.9784699e-06 5.0187844e-07)
(0.0014290637 2.9029575e-06 4.8596799e-07)
(0.001421248 2.8306032e-06 4.7082421e-07)
(0.001413633 2.7612191e-06 4.563933e-07)
(0.0014062104 2.6946329e-06 4.4262936e-07)
(0.0013989723 2.6306902e-06 4.2948759e-07)
(0.0013919116 2.5692442e-06 4.1693044e-07)
(0.0013850211 2.5101625e-06 4.0492088e-07)
(0.0013782945 2.4533183e-06 3.9342571e-07)
(0.0013717253 2.3985955e-06 3.8241108e-07)
(0.0013653078 2.3458857e-06 3.7185157e-07)
(0.0013590364 2.2950862e-06 3.6171744e-07)
(0.0013529058 2.2461058e-06 3.5198415e-07)
(0.001346911 2.1988515e-06 3.4262644e-07)
(0.0013410472 2.1532428e-06 3.3362034e-07)
(0.0013353099 2.1091969e-06 3.2494576e-07)
(0.001329695 2.0666371e-06 3.1657949e-07)
(0.0013241983 2.0254871e-06 3.0850083e-07)
(0.001318816 1.985673e-06 3.0068985e-07)
(0.0013135446 1.947114e-06 2.9313067e-07)
(0.0013083808 1.9097282e-06 2.858043e-07)
(0.0013033213 1.8734251e-06 2.7870269e-07)
(0.0012983632 1.8381154e-06 2.7181631e-07)
(0.0012935038 1.8037145e-06 2.6515349e-07)
(0.0012887402 1.7701701e-06 2.5874307e-07)
(0.0012840698 1.7375323e-06 2.526499e-07)
(0.0012794889 1.7061206e-06 2.4701449e-07)
(0.0012749925 1.676909e-06 2.4211379e-07)
(0.001270572 1.6524669e-06 2.3851843e-07)
(0.0012662098 1.6393328e-06 2.3765936e-07)
(0.0012618709 1.6545767e-06 2.4458227e-07)
(0.0012574959 1.7463719e-06 2.7712489e-07)
(0.0012529716 2.0376723e-06 2.6526441e-07)
(0.0012433358 2.9514815e-06 1.3525332e-06)
(0.0095221617 0.00021179965 0.00022180581)
(0.009269783 0.00029872516 0.00026628967)
(0.0088657772 0.00031669844 0.00025526743)
(0.0083755729 0.000317438 0.00023864265)
(0.0078888426 0.00030841043 0.00021987851)
(0.0074276349 0.00028848207 0.00019850458)
(0.006988258 0.00026048391 0.00017617916)
(0.0065698164 0.00022855168 0.00015444521)
(0.0061756011 0.00019596771 0.00013413534)
(0.0058087146 0.00016504408 0.00011567593)
(0.0054706295 0.00013728621 9.9270838e-05)
(0.0051615551 0.00011345265 8.4947831e-05)
(0.0048808654 9.3684507e-05 7.2600737e-05)
(0.0046272998 7.7712988e-05 6.2044901e-05)
(0.0043991196 6.5057026e-05 5.3064542e-05)
(0.0041942886 5.5163889e-05 4.544363e-05)
(0.0040106431 4.7493349e-05 3.8982753e-05)
(0.0038460219 4.1561378e-05 3.3506381e-05)
(0.0036983537 3.6958194e-05 2.8864075e-05)
(0.0035657105 3.3351176e-05 2.4928487e-05)
(0.0034463343 3.0479502e-05 2.1592135e-05)
(0.003338646 2.8144769e-05 1.8764099e-05)
(0.003241243 2.6200156e-05 1.6367138e-05)
(0.0031528887 2.4539753e-05 1.4335369e-05)
(0.0030724986 2.3088867e-05 1.2612489e-05)
(0.0029991252 2.1796113e-05 1.1150134e-05)
(0.0029319421 2.0626905e-05 9.9064823e-06)
(0.0028702292 1.9558162e-05 8.8458163e-06)
(0.0028133589 1.8574036e-05 7.9385382e-06)
(0.0027607855 1.7663621e-05 7.1598231e-06)
(0.0027120345 1.6818833e-05 6.4890354e-06)
(0.0026666927 1.6033067e-05 5.9090204e-06)
(0.0026243991 1.5301096e-05 5.405273e-06)
(0.0025848383 1.4618821e-05 4.965653e-06)
(0.0025477347 1.3982713e-05 4.5801144e-06)
(0.0025128472 1.3389544e-05 4.2403271e-06)
(0.002479964 1.2836282e-05 3.9393567e-06)
(0.0024488994 1.2320058e-05 3.6714267e-06)
(0.0024194896 1.1838145e-05 3.4317265e-06)
(0.00239159 1.1387941e-05 3.2162519e-06)
(0.0023650729 1.0966987e-05 3.0216597e-06)
(0.0023398248 1.0573e-05 2.8451733e-06)
(0.0023157449 1.0203875e-05 2.6844737e-06)
(0.0022927433 9.8575815e-06 2.5375953e-06)
(0.0022707398 9.5322171e-06 2.4028644e-06)
(0.002249662 9.2260296e-06 2.2788674e-06)
(0.0022294453 8.9374192e-06 2.1644e-06)
(0.0022100312 8.6649291e-06 2.0584387e-06)
(0.0021913666 8.4072378e-06 1.9601019e-06)
(0.0021734038 8.1631537e-06 1.8686321e-06)
(0.0021560989 7.931621e-06 1.7833672e-06)
(0.0021394122 7.711724e-06 1.7037082e-06)
(0.0021233074 7.5026024e-06 1.6291521e-06)
(0.0021077512 7.30338e-06 1.5592847e-06)
(0.0020927129 7.1131868e-06 1.4937203e-06)
(0.0020781645 6.9314156e-06 1.4321041e-06)
(0.0020640799 6.7576043e-06 1.3741131e-06)
(0.0020504351 6.5912608e-06 1.3194623e-06)
(0.0020372075 6.4318782e-06 1.2678949e-06)
(0.0020243766 6.2790063e-06 1.2191864e-06)
(0.0020119231 6.1322428e-06 1.1731328e-06)
(0.001999829 5.9912221e-06 1.1295438e-06)
(0.0019880776 5.855611e-06 1.0882507e-06)
(0.0019766531 5.7251052e-06 1.0490956e-06)
(0.001965541 5.5994098e-06 1.0119377e-06)
(0.0019547276 5.4782453e-06 9.7664595e-07)
(0.0019441999 5.3613898e-06 9.4310103e-07)
(0.0019339458 5.2486467e-06 9.1118962e-07)
(0.0019239539 5.1398179e-06 8.8080804e-07)
(0.0019142135 5.0347024e-06 8.5186043e-07)
(0.0019047144 4.9331182e-06 8.2426001e-07)
(0.001895447 4.8349002e-06 7.9792567e-07)
(0.0018864023 4.7398881e-06 7.7278046e-07)
(0.0018775718 4.6479421e-06 7.4875592e-07)
(0.0018689473 4.5589219e-06 7.257886e-07)
(0.0018605211 4.4726996e-06 7.0381433e-07)
(0.0018522861 4.3891542e-06 6.8277811e-07)
(0.0018442353 4.3081695e-06 6.6262608e-07)
(0.0018363621 4.2296386e-06 6.4330791e-07)
(0.0018286604 4.1534581e-06 6.2477738e-07)
(0.0018211241 4.07953e-06 6.0698796e-07)
(0.0018137478 4.007754e-06 5.8990044e-07)
(0.0018065261 3.9380368e-06 5.7347234e-07)
(0.001799454 3.8702795e-06 5.5766756e-07)
(0.0017925266 3.8043816e-06 5.4244843e-07)
(0.0017857395 3.7402362e-06 5.2777901e-07)
(0.0017790885 3.6777282e-06 5.1362856e-07)
(0.0017725695 3.616727e-06 4.9997007e-07)
(0.0017661787 3.5571081e-06 4.8677396e-07)
(0.0017599128 3.4987619e-06 4.7402511e-07)
(0.0017537682 3.4416542e-06 4.6171032e-07)
(0.0017477416 3.3859633e-06 4.4983618e-07)
(0.0017418294 3.3323812e-06 4.3844232e-07)
(0.0017360272 3.2827913e-06 4.2764549e-07)
(0.001730328 3.2417772e-06 4.1776847e-07)
(0.0017247202 3.2200408e-06 4.0999097e-07)
(0.001719183 3.2421564e-06 4.0984951e-07)
(0.0017136909 3.3643445e-06 4.4114398e-07)
(0.0017081999 3.7072205e-06 4.7353302e-07)
(0.0016974804 4.4611197e-06 1.8634995e-06)
(0.0095012861 0.00013951169 0.00022248511)
(0.0092133349 0.00022408324 0.00026709763)
(0.0088018509 0.0002570094 0.00025529581)
(0.0083306071 0.00026690691 0.0002382081)
(0.0078754299 0.00026502158 0.00021939837)
(0.0074527063 0.0002529565 0.00019823245)
(0.0070564396 0.00023295893 0.00017634609)
(0.0066827538 0.00020836345 0.0001552305)
(0.006331873 0.00018203354 0.00013558338)
(0.0060047052 0.00015603739 0.00011769036)
(0.0057015056 0.00013180401 0.0001016691)
(0.0054220192 0.00011020725 8.7524314e-05)
(0.0051656909 9.16319e-05 7.5171986e-05)
(0.0049316845 7.6091187e-05 6.4472618e-05)
(0.0047188814 6.3363143e-05 5.526115e-05)
(0.0045259349 5.3104942e-05 4.7366821e-05)
(0.0043513547 4.4932758e-05 4.0624899e-05)
(0.0041935865 3.8471361e-05 3.4883032e-05)
(0.0040510752 3.3381246e-05 3.0003995e-05)
(0.0039223115 2.937051e-05 2.5866182e-05)
(0.0038058643 2.6197263e-05 2.2362869e-05)
(0.0037004012 2.3666732e-05 1.9400962e-05)
(0.0036047 2.1625758e-05 1.6899609e-05)
(0.0035176529 1.9956326e-05 1.4788823e-05)
(0.0034382652 1.8569047e-05 1.3008105e-05)
(0.0033656513 1.7397363e-05 1.1504745e-05)
(0.0032990266 1.6392004e-05 1.0233524e-05)
(0.0032376995 1.5516241e-05 9.1565341e-06)
(0.0031810636 1.4743887e-05 8.2421123e-06)
(0.0031285885 1.405615e-05 7.4635752e-06)
(0.0030798115 1.3438893e-05 6.7985198e-06)
(0.0030343294 1.2881151e-05 6.2282221e-06)
(0.0029917905 1.2374496e-05 5.7369827e-06)
(0.0029518882 1.191242e-05 5.3116663e-06)
(0.0029143553 1.148969e-05 4.9413535e-06)
(0.0028789586 1.1101928e-05 4.6170017e-06)
(0.0028454946 1.074538e-05 4.3311228e-06)
(0.0028137847 1.0416775e-05 4.0775297e-06)
(0.0027836727 1.0113219e-05 3.8511088e-06)
(0.0027550209 9.8321218e-06 3.6476462e-06)
(0.0027277081 9.571161e-06 3.4636652e-06)
(0.002701627 9.3282502e-06 3.2963009e-06)
(0.0026766823 9.1015158e-06 3.1431914e-06)
(0.0026527895 8.8892435e-06 3.0023827e-06)
(0.0026298729 8.6898925e-06 2.8722568e-06)
(0.0026078647 8.5020889e-06 2.7514711e-06)
(0.002586704 8.324617e-06 2.6389105e-06)
(0.0025663358 8.1563968e-06 2.5336423e-06)
(0.0025467102 7.9964773e-06 2.434885e-06)
(0.002527782 7.8440261e-06 2.3419792e-06)
(0.0025095101 7.698336e-06 2.2543613e-06)
(0.0024918566 7.558809e-06 2.1715443e-06)
(0.0024747871 7.4248979e-06 2.0931128e-06)
(0.0024582699 7.2960212e-06 2.0187198e-06)
(0.0024422756 7.1714377e-06 1.9480694e-06)
(0.0024267775 7.0509272e-06 1.8808985e-06)
(0.0024117506 6.9343753e-06 1.8169529e-06)
(0.0023971715 6.8214893e-06 1.7560025e-06)
(0.0023830185 6.7119548e-06 1.6978518e-06)
(0.0023692714 6.6055385e-06 1.6423283e-06)
(0.0023559116 6.5020468e-06 1.5892717e-06)
(0.0023429214 6.4013103e-06 1.5385379e-06)
(0.0023302844 6.3031814e-06 1.4899943e-06)
(0.0023179851 6.2075254e-06 1.4435156e-06)
(0.0023060089 6.1142041e-06 1.3989938e-06)
(0.0022943424 6.023069e-06 1.3563249e-06)
(0.0022829727 5.934058e-06 1.3154156e-06)
(0.0022718877 5.8471285e-06 1.2761716e-06)
(0.002261076 5.7622028e-06 1.2385024e-06)
(0.0022505267 5.6791969e-06 1.2023313e-06)
(0.0022402296 5.5980415e-06 1.1675835e-06)
(0.0022301752 5.5186727e-06 1.1341883e-06)
(0.0022203542 5.4410284e-06 1.102081e-06)
(0.002210758 5.3650605e-06 1.0711998e-06)
(0.0022013784 5.2907166e-06 1.0414847e-06)
(0.0021922076 5.2179473e-06 1.0128824e-06)
(0.0021832381 5.1467103e-06 9.8533848e-07)
(0.0021744628 5.0769582e-06 9.58804e-07)
(0.0021658752 5.0086493e-06 9.332307e-07)
(0.0021574688 4.9417443e-06 9.0857428e-07)
(0.0021492375 4.8762002e-06 8.8479089e-07)
(0.0021411756 4.8119657e-06 8.6183939e-07)
(0.0021332776 4.7489984e-06 8.3967788e-07)
(0.0021255383 4.6872396e-06 8.1827119e-07)
(0.0021179527 4.6266214e-06 7.9757738e-07)
(0.0021105161 4.5670669e-06 7.7756158e-07)
(0.0021032242 4.508481e-06 7.5818418e-07)
(0.0020960727 4.4507544e-06 7.3941203e-07)
(0.0020890577 4.3937752e-06 7.2120342e-07)
(0.0020821756 4.3374555e-06 7.0352192e-07)
(0.002075423 4.2818117e-06 6.8632243e-07)
(0.0020687967 4.2271334e-06 6.6956146e-07)
(0.0020622937 4.174353e-06 6.5320301e-07)
(0.002055911 4.1258138e-06 6.37262e-07)
(0.0020496453 4.0868292e-06 6.219849e-07)
(0.0020434926 4.0687768e-06 6.0874782e-07)
(0.0020374483 4.0948776e-06 6.0452238e-07)
(0.0020315149 4.2094258e-06 6.3987745e-07)
(0.0020256647 4.479749e-06 7.1688366e-07)
(0.0020144539 4.905777e-06 2.2695248e-06)
(0.0094902877 9.6726608e-05 0.00022289229)
(0.00917661 0.00016632333 0.00026788105)
(0.0087449456 0.00019969046 0.00025550648)
(0.0082664657 0.00021101603 0.00023762681)
(0.00781215 0.0002109939 0.0002181603)
(0.0073950862 0.0002028236 0.00019646328)
(0.0070087986 0.00018827265 0.00017418493)
(0.006648835 0.00016968865 0.0001528463)
(0.0063142174 0.00014929331 0.00013312182)
(0.0060045996 0.00012875288 0.0001152379)
(0.0057192201 0.00010923292 9.9256791e-05)
(0.0054570682 9.1490073e-05 8.514891e-05)
(0.0052170782 7.5923401e-05 7.2816212e-05)
(0.0049981259 6.2643332e-05 6.2119134e-05)
(0.0047989841 5.1561154e-05 5.2900048e-05)
(0.0046183234 4.2472279e-05 4.4997976e-05)
(0.0044547458 3.5118725e-05 3.8256897e-05)
(0.0043068267 2.9230544e-05 3.2530442e-05)
(0.0041731526 2.4550834e-05 2.7684339e-05)
(0.0040523509 2.084911e-05 2.3597363e-05)
(0.0039431142 1.7926912e-05 2.0161345e-05)
(0.0038442168 1.56186e-05 1.7280682e-05)
(0.0037545253 1.3789365e-05 1.4871531e-05)
(0.0036730042 1.2331759e-05 1.2860862e-05)
(0.0035987172 1.1161538e-05 1.1185212e-05)
(0.0035308247 1.0213367e-05 9.7889746e-06)
(0.0034685786 9.4380831e-06 8.6250725e-06)
(0.0034113173 8.7971284e-06 7.6543157e-06)
(0.0033584589 8.2627208e-06 6.8439392e-06)
(0.0033094933 7.8140804e-06 6.166455e-06)
(0.0032639753 7.4348231e-06 5.5988441e-06)
(0.0032215172 7.1121297e-06 5.121927e-06)
(0.0031817817 6.8360973e-06 4.7197264e-06)
(0.0031444758 6.5990201e-06 4.3789725e-06)
(0.0031093448 6.3947785e-06 4.0886799e-06)
(0.0030761678 6.2184047e-06 3.8397975e-06)
(0.0030447526 6.065795e-06 3.6248782e-06)
(0.003014932 5.9335274e-06 3.4378182e-06)
(0.0029865602 5.8186969e-06 3.2736184e-06)
(0.0029595097 5.718819e-06 3.1282052e-06)
(0.002933669 5.6317498e-06 2.9982612e-06)
(0.00290894 5.5556266e-06 2.8810973e-06)
(0.0028852364 5.4888242e-06 2.7745331e-06)
(0.0028624815 5.4299139e-06 2.6768096e-06)
(0.0028406075 5.3776431e-06 2.5865052e-06)
(0.0028195538 5.3309222e-06 2.5024716e-06)
(0.0027992664 5.2888097e-06 2.4237889e-06)
(0.0027796963 5.2504817e-06 2.3497111e-06)
(0.0027607998 5.2152412e-06 2.2796381e-06)
(0.002742537 5.1824965e-06 2.2130833e-06)
(0.0027248716 5.1517649e-06 2.1496542e-06)
(0.0027077708 5.122667e-06 2.0890221e-06)
(0.002691204 5.0948946e-06 2.0309203e-06)
(0.0026751435 5.0680866e-06 1.9751357e-06)
(0.0026595636 5.0410649e-06 1.9215391e-06)
(0.0026444411 5.0142585e-06 1.8699665e-06)
(0.002629754 4.9880164e-06 1.8202517e-06)
(0.0026154815 4.9620711e-06 1.7722782e-06)
(0.0026016045 4.9361396e-06 1.7259601e-06)
(0.0025881054 4.9100845e-06 1.6812142e-06)
(0.0025749674 4.8838332e-06 1.6379657e-06)
(0.002562175 4.8573406e-06 1.5961462e-06)
(0.0025497136 4.8305814e-06 1.5556923e-06)
(0.0025375693 4.8035393e-06 1.5165476e-06)
(0.0025257292 4.7761756e-06 1.4786612e-06)
(0.002514181 4.7483844e-06 1.4419864e-06)
(0.0025029134 4.720276e-06 1.406484e-06)
(0.0024919153 4.6919144e-06 1.3721031e-06)
(0.0024811765 4.6632886e-06 1.3387975e-06)
(0.002470687 4.6344011e-06 1.3065297e-06)
(0.0024604377 4.6052669e-06 1.2752608e-06)
(0.0024504197 4.5759089e-06 1.2449551e-06)
(0.0024406247 4.5463453e-06 1.2155763e-06)
(0.0024310448 4.5165993e-06 1.1870937e-06)
(0.0024216723 4.4866948e-06 1.1594726e-06)
(0.0024125001 4.4566497e-06 1.1326845e-06)
(0.0024035213 4.426488e-06 1.1066975e-06)
(0.0023947295 4.3962288e-06 1.0814832e-06)
(0.0023861184 4.3658894e-06 1.0570132e-06)
(0.0023776821 4.3354869e-06 1.0332599e-06)
(0.0023694149 4.3050333e-06 1.0101965e-06)
(0.0023613115 4.2745351e-06 9.8779555e-07)
(0.0023533667 4.2439932e-06 9.6603065e-07)
(0.0023455757 4.2133964e-06 9.4487436e-07)
(0.0023379338 4.1827205e-06 9.2429995e-07)
(0.0023304365 4.1519263e-06 9.0427551e-07)
(0.0023230798 4.1209523e-06 8.8477259e-07)
(0.0023158597 4.0897246e-06 8.6575212e-07)
(0.0023087726 4.0581575e-06 8.471728e-07)
(0.002301815 4.0261916e-06 8.2898134e-07)
(0.0022949838 3.9938781e-06 8.1110823e-07)
(0.0022882765 3.9615316e-06 7.9346307e-07)
(0.002281691 3.9300771e-06 7.7594272e-07)
(0.0022752261 3.9016901e-06 7.5847833e-07)
(0.002268882 3.8809404e-06 7.4124636e-07)
(0.0022626608 3.8766471e-06 7.2572692e-07)
(0.0022565685 3.9043037e-06 7.1957957e-07)
(0.0022506189 3.9866545e-06 7.55799e-07)
(0.0022447715 4.1390996e-06 8.4931723e-07)
(0.002233564 4.2832261e-06 2.4122104e-06)
(0.0094843561 6.6886586e-05 0.00022303624)
(0.0091549219 0.00011904886 0.00026838771)
(0.0087072816 0.00014772496 0.00025588053)
(0.0082191888 0.00015892952 0.00023765677)
(0.0077602858 0.00016026049 0.00021787143)
(0.0073412804 0.00015505102 0.00019586613)
(0.0069552494 0.00014481701 0.00017327438)
(0.0065978366 0.00013121474 0.00015165024)
(0.0062677954 0.00011592881 0.00013169211)
(0.0059642872 0.00010028521 0.0001136244)
(0.0056860598 8.5214432e-05 9.7497523e-05)
(0.0054316726 7.133041e-05 8.3272195e-05)
(0.0051997008 5.89843e-05 7.0844884e-05)
(0.0049887459 4.8311755e-05 6.0073373e-05)
(0.0047973943 3.9291583e-05 5.0798891e-05)
(0.0046242055 3.1804355e-05 4.2859903e-05)
(0.0044677269 2.5679085e-05 3.6099807e-05)
(0.0043265179 2.0725785e-05 3.037129e-05)
(0.0041991724 1.6756343e-05 2.5538702e-05)
(0.004084339 1.3596837e-05 2.1479083e-05)
(0.0039807371 1.1093753e-05 1.8082324e-05)
(0.0038871692 9.1161628e-06 1.525079e-05)
(0.0038025288 7.5553799e-06 1.2898647e-05)
(0.003725804 6.3231351e-06 1.0950986e-05)
(0.0036560786 5.3488195e-06 9.342678e-06)
(0.0035925304 4.5751818e-06 8.0166128e-06)
(0.0035344253 3.9620997e-06 6.9239482e-06)
(0.0034811131 3.4726275e-06 6.025073e-06)
(0.0034320221 3.0815205e-06 5.2862645e-06)
(0.0033866501 2.7702761e-06 4.6792102e-06)
(0.0033445586 2.5236731e-06 4.1805209e-06)
(0.0033053662 2.3295863e-06 3.7707528e-06)
(0.0032687419 2.1784975e-06 3.4337453e-06)
(0.0032343982 2.0629047e-06 3.156111e-06)
(0.0032020863 1.9768087e-06 2.9267971e-06)
(0.0031715907 1.9153169e-06 2.7367041e-06)
(0.0031427248 1.8743779e-06 2.5783548e-06)
(0.0031153267 1.8506035e-06 2.4456298e-06)
(0.0030892563 1.8411237e-06 2.3335223e-06)
(0.0030643915 1.8434984e-06 2.2379667e-06)
(0.003040626 1.8556439e-06 2.1556629e-06)
(0.0030178671 1.8757808e-06 2.0839516e-06)
(0.0029960335 1.9023803e-06 2.0206936e-06)
(0.0029750538 1.9341338e-06 1.9641814e-06)
(0.0029548648 1.9699145e-06 1.9130528e-06)
(0.0029354109 2.0087612e-06 1.8662274e-06)
(0.0029166424 2.0498583e-06 1.822852e-06)
(0.0028985148 2.0925089e-06 1.7822573e-06)
(0.0028809885 2.1361365e-06 1.7439145e-06)
(0.0028640277 2.1802691e-06 1.7074105e-06)
(0.0028475999 2.2245507e-06 1.6724138e-06)
(0.0028316758 2.2687597e-06 1.6386544e-06)
(0.0028162284 2.3128929e-06 1.6058718e-06)
(0.0028012324 2.3570781e-06 1.5738217e-06)
(0.0027866658 2.3978706e-06 1.5431884e-06)
(0.0027725089 2.436234e-06 1.513687e-06)
(0.0027587418 2.4734385e-06 1.4848886e-06)
(0.002745346 2.509533e-06 1.4567012e-06)
(0.002732305 2.5443505e-06 1.4291165e-06)
(0.0027196032 2.577772e-06 1.4021119e-06)
(0.0027072261 2.6097238e-06 1.3756636e-06)
(0.0026951602 2.6401661e-06 1.349756e-06)
(0.0026833928 2.6690878e-06 1.3243746e-06)
(0.0026719116 2.696503e-06 1.2995085e-06)
(0.0026607054 2.7223737e-06 1.2751524e-06)
(0.0026497635 2.7463569e-06 1.2513136e-06)
(0.002639076 2.7689099e-06 1.2279786e-06)
(0.0026286333 2.7901462e-06 1.2051293e-06)
(0.0026184262 2.8099925e-06 1.1827608e-06)
(0.0026084461 2.8284323e-06 1.16087e-06)
(0.0025986849 2.8454923e-06 1.1394499e-06)
(0.0025891348 2.8612181e-06 1.1184909e-06)
(0.0025797885 2.8756488e-06 1.0979875e-06)
(0.002570639 2.8888284e-06 1.077929e-06)
(0.0025616795 2.9008042e-06 1.0583094e-06)
(0.0025529038 2.9116185e-06 1.0391194e-06)
(0.0025443058 2.921312e-06 1.0203492e-06)
(0.0025358796 2.9299291e-06 1.00199e-06)
(0.0025276198 2.9375062e-06 9.8403264e-07)
(0.002519521 2.944079e-06 9.6646541e-07)
(0.0025115783 2.9496808e-06 9.4927933e-07)
(0.0025037869 2.9543389e-06 9.3246124e-07)
(0.0024961421 2.9580688e-06 9.1599983e-07)
(0.0024886396 2.9608825e-06 8.9987985e-07)
(0.0024812752 2.9627737e-06 8.8408525e-07)
(0.002474045 2.9637228e-06 8.6859466e-07)
(0.0024669452 2.9636873e-06 8.5338189e-07)
(0.0024599723 2.9626125e-06 8.3841258e-07)
(0.0024531231 2.9604307e-06 8.2364316e-07)
(0.0024463945 2.957097e-06 8.0900458e-07)
(0.0024397839 2.9526522e-06 7.9439856e-07)
(0.0024332894 2.9473517e-06 7.7969407e-07)
(0.0024269099 2.9419126e-06 7.647091e-07)
(0.0024206457 2.93792e-06 7.4925958e-07)
(0.0024144993 2.9384197e-06 7.3336437e-07)
(0.0024084767 2.9484963e-06 7.1826422e-07)
(0.0024025877 2.9751253e-06 7.1113307e-07)
(0.002396846 3.0234615e-06 7.4331317e-07)
(0.0023911945 3.0808301e-06 8.3046652e-07)
(0.0023803644 3.0574262e-06 2.2999436e-06)
(0.0094810492 4.4090135e-05 0.00022308885)
(0.0091422796 7.9975483e-05 0.00026874495)
(0.0086839084 0.00010160921 0.00025628771)
(0.0081880903 0.00011101591 0.00023793456)
(0.0077246858 0.00011275117 0.00021798622)
(0.0073029895 0.00010953687 0.00019578738)
(0.0069155191 0.00010266029 0.00017296032)
(0.0065579578 9.3267236e-05 0.0001510852)
(0.006229001 8.2539593e-05 0.00013089045)
(0.005927585 7.1446832e-05 0.00011261412)
(0.0056522063 6.067336e-05 9.6309239e-05)
(0.0054012005 5.0670807e-05 8.1936267e-05)
(0.0051729477 4.1706608e-05 6.9390831e-05)
(0.004965887 3.3898115e-05 5.8529098e-05)
(0.0047784814 2.7249954e-05 4.9189879e-05)
(0.0046092054 2.1693072e-05 4.1208773e-05)
(0.0044565535 1.7117436e-05 3.4426143e-05)
(0.0043190553 1.3395519e-05 2.8691658e-05)
(0.0041952917 1.0397812e-05 2.3866804e-05)
(0.0040839086 8.0023317e-06 1.9826011e-05)
(0.0039836292 6.0997718e-06 1.6456861e-05)
(0.0038932634 4.5956615e-06 1.3659715e-05)
(0.0038117126 3.4106726e-06 1.1347012e-05)
(0.0037379734 2.4799294e-06 9.4422914e-06)
(0.0036711359 1.7515126e-06 7.8790889e-06)
(0.0036103859 1.1749063e-06 6.6010319e-06)
(0.0035549935 7.2234165e-07 5.55612e-06)
(0.0035043108 3.7342497e-07 4.7060693e-06)
(0.0034577717 1.0569704e-07 4.0163444e-06)
(0.0034148763 -9.9090317e-08 3.4574131e-06)
(0.0033751872 -2.5333628e-07 3.0054952e-06)
(0.0033383243 -3.6639972e-07 2.6409747e-06)
(0.0033039576 -4.4577935e-07 2.3475733e-06)
(0.0032718009 -4.9748373e-07 2.1118263e-06)
(0.0032416065 -5.263455e-07 1.9226412e-06)
(0.0032131599 -5.3631054e-07 1.7709159e-06)
(0.0031862758 -5.3064213e-07 1.6492029e-06)
(0.0031607936 -5.1206472e-07 1.5514409e-06)
(0.0031365743 -4.8287305e-07 1.4727095e-06)
(0.0031134976 -4.4500735e-07 1.4090328e-06)
(0.0030914586 -4.0011196e-07 1.3572044e-06)
(0.0030703663 -3.4957925e-07 1.314656e-06)
(0.0030501409 -2.9459557e-07 1.2793308e-06)
(0.0030307129 -2.3616975e-07 1.249591e-06)
(0.0030120207 -1.7516651e-07 1.2241406e-06)
(0.0029940105 -1.1232151e-07 1.201953e-06)
(0.0029766343 -4.8269227e-08 1.1822239e-06)
(0.0029598495 1.6449125e-08 1.1643211e-06)
(0.0029436181 8.1354752e-08 1.1477517e-06)
(0.002927906 1.460236e-07 1.1321252e-06)
(0.0029126825 2.1005861e-07 1.1171187e-06)
(0.0028979201 2.7304871e-07 1.1024388e-06)
(0.0028835935 3.3454116e-07 1.0876608e-06)
(0.0028696773 3.9432156e-07 1.0722031e-06)
(0.0028561514 4.5704851e-07 1.0590083e-06)
(0.0028429997 5.2059932e-07 1.0472571e-06)
(0.0028302035 5.8225293e-07 1.0356078e-06)
(0.0028177449 6.416378e-07 1.023801e-06)
(0.0028056084 6.9901959e-07 1.0118743e-06)
(0.0027937799 7.5456139e-07 9.9986906e-07)
(0.0027822461 8.0834899e-07 9.8781086e-07)
(0.0027709946 8.6046797e-07 9.7571855e-07)
(0.0027600137 9.1102504e-07 9.6360235e-07)
(0.0027492926 9.601948e-07 9.5144717e-07)
(0.0027388207 1.0080063e-06 9.3926765e-07)
(0.0027285887 1.0528516e-06 9.274652e-07)
(0.0027185878 1.0958678e-06 9.1582997e-07)
(0.0027088089 1.1375007e-06 9.0425309e-07)
(0.0026992438 1.1777673e-06 8.9275898e-07)
(0.0026898847 1.2166575e-06 8.8136571e-07)
(0.0026807244 1.2541691e-06 8.7008052e-07)
(0.0026717559 1.2903144e-06 8.5890669e-07)
(0.0026629726 1.3251078e-06 8.478533e-07)
(0.0026543682 1.3585731e-06 8.3692342e-07)
(0.0026459367 1.3907384e-06 8.2612167e-07)
(0.0026376723 1.4216351e-06 8.1545332e-07)
(0.0026295698 1.4512892e-06 8.0491978e-07)
(0.0026216238 1.4797326e-06 7.9452286e-07)
(0.0026138294 1.5069913e-06 7.8426345e-07)
(0.002606182 1.5330931e-06 7.7414021e-07)
(0.0025986769 1.5580642e-06 7.6415258e-07)
(0.0025913099 1.581923e-06 7.5429477e-07)
(0.0025840769 1.6046822e-06 7.4456524e-07)
(0.0025769739 1.6263498e-06 7.3495317e-07)
(0.0025699972 1.6469223e-06 7.2544813e-07)