/*--------------------------------*- C++ -*----------------------------------*\
  =========                 |
  \\      /  F ield         | OpenFOAM: The Open Source CFD Toolbox
   \\    /   O peration     | Website:  https://openfoam.org
    \\  /    A nd           | Version:  7
     \\/     M anipulation  |
\*---------------------------------------------------------------------------*/
FoamFile
{
    version     2.0;
    format      ascii;
    class       surfaceScalarField;
    location    "800/water";
    object      phi;
}
// * * * * * * * * * * * * * * * * * * * * * * * * * * * * * * * * * * * * * //

dimensions      [1 0 -1 0 0 0 0];

internalField   nonuniform List<scalar> 
156660
(
9.9057239e-05
6.0010402e-06
6.0528092e-06
8.6847497e-05
6.0555113e-06
6.1542307e-06
7.5687891e-05
5.5111362e-06
5.6484701e-06
6.5441704e-05
5.0404181e-06
5.2057689e-06
5.6267661e-05
4.4956436e-06
4.6783991e-06
4.8318019e-05
3.8797648e-06
4.0698777e-06
4.1624776e-05
3.2524448e-06
3.4407981e-06
3.6124897e-05
2.660462e-06
2.839417e-06
3.1692235e-05
2.1345127e-06
2.2981489e-06
2.8162841e-05
1.6926975e-06
1.8366964e-06
2.5361437e-05
1.3399933e-06
1.4614113e-06
2.3124664e-05
1.0698476e-06
1.1669256e-06
2.1315127e-05
8.6875418e-07
9.4078226e-07
1.9825714e-05
7.2110063e-07
7.6831272e-07
1.8577278e-05
6.1248244e-07
6.3595307e-07
1.7513255e-05
5.3125217e-07
5.3277151e-07
1.6593744e-05
4.6879724e-07
4.507135e-07
1.5790433e-05
4.1913717e-07
3.8417388e-07
1.5082784e-05
3.7829068e-07
3.2935849e-07
1.4455417e-05
3.4367127e-07
2.8369563e-07
1.3896409e-05
3.1361409e-07
2.4539333e-07
1.339622e-05
2.8704451e-07
2.1314454e-07
1.2947015e-05
2.6326031e-07
1.8594512e-07
1.2542237e-05
2.4179364e-07
1.6298461e-07
1.2176318e-05
2.2232207e-07
1.4359691e-07
1.1844484e-05
2.046148e-07
1.2721882e-07
1.1542609e-05
1.8849493e-07
1.1337973e-07
1.1267116e-05
1.7381575e-07
1.0167794e-07
1.1014892e-05
1.6046271e-07
9.1760852e-08
1.0783252e-05
1.4833965e-07
8.3300603e-08
1.0569851e-05
1.3734905e-07
7.6052127e-08
1.0372614e-05
1.2738861e-07
6.984833e-08
1.0189731e-05
1.1836808e-07
6.4514829e-08
1.001963e-05
1.1020446e-07
5.9896622e-08
9.8609388e-06
1.0281921e-07
5.5871651e-08
9.7124594e-06
9.6137957e-08
5.2341336e-08
9.5731439e-06
9.0091178e-08
4.9224349e-08
9.4420759e-06
8.4614473e-08
4.6453573e-08
9.3184531e-06
7.9648661e-08
4.3974122e-08
9.2015723e-06
7.513972e-08
4.1741091e-08
9.0908166e-06
7.1038155e-08
3.971756e-08
8.9856432e-06
6.7301166e-08
3.7872301e-08
8.8855707e-06
6.3894267e-08
3.6178142e-08
8.7901757e-06
6.0780129e-08
3.4614955e-08
8.6990829e-06
5.7926183e-08
3.3166657e-08
8.6119591e-06
5.5303739e-08
3.1820123e-08
8.5285072e-06
5.2887471e-08
3.0564443e-08
8.4484619e-06
5.0655063e-08
2.9390282e-08
8.3715848e-06
4.8587044e-08
2.8289991e-08
8.2976614e-06
4.6666185e-08
2.7257218e-08
8.2264975e-06
4.487745e-08
2.6286421e-08
8.1579202e-06
4.3208785e-08
2.5368519e-08
8.0917731e-06
4.1649041e-08
2.4498045e-08
8.0279108e-06
4.0186992e-08
2.3675359e-08
7.9662006e-06
3.8812691e-08
2.2897531e-08
7.9065219e-06
3.7518378e-08
2.2160256e-08
7.8487639e-06
3.6297856e-08
2.1460172e-08
7.7928242e-06
3.5145144e-08
2.0794579e-08
7.7386083e-06
3.4054652e-08
2.0161162e-08
7.6860293e-06
3.3021326e-08
1.955771e-08
7.6350062e-06
3.2040813e-08
1.8982271e-08
7.5854641e-06
3.1109082e-08
1.8433078e-08
7.537333e-06
3.0222612e-08
1.7908519e-08
7.4905478e-06
2.9378244e-08
1.7407007e-08
7.4450476e-06
2.8573006e-08
1.6927157e-08
7.4007756e-06
2.7804248e-08
1.6467779e-08
7.3576783e-06
2.7069578e-08
1.602765e-08
7.3157057e-06
2.6367047e-08
1.5605622e-08
7.2748103e-06
2.5694663e-08
1.5200697e-08
7.2349479e-06
2.5050584e-08
1.4811806e-08
7.1960766e-06
2.4433105e-08
1.4438198e-08
7.158157e-06
2.3840679e-08
1.4078942e-08
7.1211518e-06
2.3271932e-08
1.3733295e-08
7.0850258e-06
2.2725511e-08
1.3400541e-08
7.0497457e-06
2.2200217e-08
1.3079955e-08
7.0152798e-06
2.1694913e-08
1.2770909e-08
6.9815985e-06
2.1208594e-08
1.2472752e-08
6.9486733e-06
2.0740245e-08
1.2184912e-08
6.9164775e-06
2.0288991e-08
1.1906826e-08
6.8849858e-06
1.9853982e-08
1.1637839e-08
6.8541739e-06
1.9434366e-08
1.1377446e-08
6.8240193e-06
1.9029431e-08
1.1125124e-08
6.7945006e-06
1.8638491e-08
1.0880255e-08
6.7655975e-06
1.8260764e-08
1.0642312e-08
6.7372912e-06
1.7895567e-08
1.0410773e-08
6.709564e-06
1.7542096e-08
1.0185133e-08
6.6823996e-06
1.7199635e-08
9.9649039e-09
6.6557824e-06
1.6867271e-08
9.749849e-09
6.6296983e-06
1.6544138e-08
9.5399869e-09
6.6041331e-06
1.6229289e-08
9.3360123e-09
6.5790714e-06
1.5921937e-08
9.1396838e-09
6.554494e-06
1.5622334e-08
8.9550585e-09
6.5303708e-06
1.5332533e-08
8.7906612e-09
6.5066467e-06
1.5060464e-08
8.6636213e-09
6.4832094e-06
1.4827806e-08
8.6095382e-09
6.4598103e-06
1.469307e-08
8.7060057e-09
6.4358388e-06
1.4826415e-08
9.1451376e-09
6.4096303e-06
1.5741732e-08
1.0466757e-08
6.3782855e-06
1.8026575e-08
1.3318218e-08
3.2300225e-08
2.7923522e-08
0.00010646494
4.1872386e-06
6.4599816e-06
0.0001002019
5.695418e-06
6.6231353e-06
9.3659588e-05
5.7790389e-06
6.2744098e-06
8.7011589e-05
5.6514782e-06
6.0369387e-06
8.0422927e-05
5.3669119e-06
5.7173941e-06
7.4094022e-05
4.9022832e-06
5.3063863e-06
6.8167026e-05
4.3278135e-06
4.8516272e-06
6.2722565e-05
3.717891e-06
4.387032e-06
5.7799049e-05
3.1243144e-06
3.9337144e-06
5.3403345e-05
2.5820689e-06
3.5063329e-06
4.9517402e-05
2.1121062e-06
3.1138299e-06
4.6105482e-05
1.7220197e-06
2.7597474e-06
4.3121558e-05
1.4089355e-06
2.4437429e-06
4.0515558e-05
1.1637552e-06
2.163346e-06
3.8237948e-05
9.7485848e-07
1.9152336e-06
3.6242683e-05
8.3055973e-07
1.6959573e-06
3.4488759e-05
7.2043696e-07
1.5022849e-06
3.2940716e-05
6.3586295e-07
1.3313172e-06
3.1568463e-05
5.7005006e-07
1.1804931e-06
3.0346733e-05
5.1784896e-07
1.0475522e-06
2.9254398e-05
4.7545952e-07
9.3049031e-07
2.8273782e-05
4.4013953e-07
8.2752023e-07
2.7390054e-05
4.0994893e-07
7.370401e-07
2.6590699e-05
3.8353954e-07
6.5760859e-07
2.5865102e-05
3.5998886e-07
5.8793072e-07
2.5204197e-05
3.3867631e-07
5.268426e-07
2.4600205e-05
3.1918359e-07
4.7330348e-07
2.4046429e-05
3.0120189e-07
4.2639017e-07
2.3537073e-05
2.8455203e-07
3.8526717e-07
2.3067119e-05
2.6911103e-07
3.4918241e-07
2.2632208e-05
2.5478166e-07
3.1747787e-07
2.2228528e-05
2.4147385e-07
2.8959533e-07
2.1852744e-05
2.291107e-07
2.6504124e-07
2.1501947e-05
2.1762892e-07
2.4337258e-07
2.1173591e-05
2.0696949e-07
2.2420573e-07
2.0865444e-05
1.9707568e-07
2.0720865e-07
2.0575549e-05
1.878925e-07
1.9209397e-07
2.0302183e-05
1.7936721e-07
1.7861343e-07
2.0043829e-05
1.7144909e-07
1.6655324e-07
1.979915e-05
1.640898e-07
1.5572944e-07
1.956696e-05
1.572438e-07
1.4598405e-07
1.934621e-05
1.5086893e-07
1.3718215e-07
1.9135969e-05
1.4492653e-07
1.292088e-07
1.8935407e-05
1.3937908e-07
1.2196309e-07
1.8743783e-05
1.3419234e-07
1.1535767e-07
1.8560435e-05
1.2933511e-07
1.0931729e-07
1.8384766e-05
1.2477909e-07
1.0377718e-07
1.8216241e-05
1.2049853e-07
9.8681287e-08
1.8054377e-05
1.1647011e-07
9.3981298e-08
1.7898734e-05
1.1267293e-07
8.9635434e-08
1.7748917e-05
1.0908823e-07
8.560703e-08
1.7604563e-05
1.0570003e-07
8.1862427e-08
1.7465345e-05
1.0249337e-07
7.8373262e-08
1.7330962e-05
9.9453015e-08
7.5116994e-08
1.7201138e-05
9.6564406e-08
7.2072715e-08
1.7075619e-05
9.3816617e-08
6.9221159e-08
1.695417e-05
9.1201104e-08
6.6545123e-08
1.6836577e-05
8.8709121e-08
6.4029546e-08
1.6722638e-05
8.6331921e-08
6.1661043e-08
1.661217e-05
8.4061763e-08
5.9427706e-08
1.6505001e-05
8.1891538e-08
5.7318825e-08
1.640097e-05
7.9814916e-08
5.5324843e-08
1.6299929e-05
7.7826148e-08
5.3437132e-08
1.620174e-05
7.5919842e-08
5.1647917e-08
1.6106272e-05
7.4091014e-08
4.9950095e-08
1.6013404e-05
7.2334964e-08
4.8337346e-08
1.5923022e-05
7.0647717e-08
4.6803873e-08
1.5835019e-05
6.9025726e-08
4.5344263e-08
1.5749294e-05
6.7465562e-08
4.3953695e-08
1.5665753e-05
6.5963762e-08
4.2627698e-08
1.5584307e-05
6.4517345e-08
4.1362167e-08
1.5504871e-05
6.3123415e-08
4.0153393e-08
1.5427366e-05
6.1779315e-08
3.8997819e-08
1.5351716e-05
6.0482547e-08
3.7892293e-08
1.5277852e-05
5.9230832e-08
3.683386e-08
1.5205705e-05
5.8021999e-08
3.5819749e-08
1.5135212e-05
5.6854011e-08
3.4847365e-08
1.5066313e-05
5.5724987e-08
3.3914335e-08
1.499895e-05
5.4633122e-08
3.3018405e-08
1.493307e-05
5.3576718e-08
3.2157419e-08
1.4868621e-05
5.2554163e-08
3.1329396e-08
1.4805554e-05
5.1563933e-08
3.0532438e-08
1.4743823e-05
5.0604457e-08
2.9764664e-08
1.4683386e-05
4.967428e-08
2.9024373e-08
1.4624199e-05
4.877183e-08
2.8309901e-08
1.4566226e-05
4.7895446e-08
2.7619592e-08
1.4509431e-05
4.7043525e-08
2.6951993e-08
1.4453778e-05
4.6214108e-08
2.6305795e-08
1.4399237e-05
4.5405418e-08
2.5679913e-08
1.4345777e-05
4.4615697e-08
2.5073753e-08
1.4293367e-05
4.3844236e-08
2.4487718e-08
1.4241972e-05
4.309287e-08
2.3923745e-08
1.4191548e-05
4.2369884e-08
2.338715e-08
1.4142019e-05
4.1699304e-08
2.2889652e-08
1.4093249e-05
4.1141636e-08
2.245664e-08
1.4044951e-05
4.0844619e-08
2.2146541e-08
1.3996485e-05
4.1169207e-08
2.2123054e-08
1.3946229e-05
4.3012292e-08
2.2985425e-08
1.389015e-05
4.8540264e-08
2.5565788e-08
6.3281563e-08
5.0000861e-08
0.00010603565
2.7876425e-06
6.4750379e-06
0.00010074799
4.4145413e-06
6.5685292e-06
9.5493515e-05
4.8594028e-06
6.1741158e-06
9.0256432e-05
4.930369e-06
5.9581921e-06
8.5101366e-05
4.8311767e-06
5.6908011e-06
8.0102875e-05
4.5561761e-06
5.3445981e-06
7.5322251e-05
4.1469521e-06
4.9614853e-06
7.0803266e-05
3.6678925e-06
4.5689837e-06
6.6576264e-05
3.1701903e-06
4.1811254e-06
6.2660725e-05
2.6900109e-06
3.8075976e-06
5.9065443e-05
2.2519319e-06
3.4554566e-06
5.5788936e-05
1.8697304e-06
3.1287958e-06
5.2820978e-05
1.5477473e-06
2.8291458e-06
5.014479e-05
1.2836302e-06
2.5563139e-06
4.7739304e-05
1.07123e-06
2.3091141e-06
4.5581183e-05
9.0281501e-07
2.0858661e-06
4.3646423e-05
7.7048776e-07
1.884709e-06
4.1911533e-05
6.6697371e-07
1.7037793e-06
4.0354306e-05
5.8598196e-07
1.5412951e-06
3.8954268e-05
5.2230221e-07
1.3955849e-06
3.769288e-05
4.7175603e-07
1.265091e-06
3.6553576e-05
4.3107983e-07
1.1483634e-06
3.552169e-05
3.9778203e-07
1.0440533e-06
3.4584322e-05
3.699988e-07
9.5090831e-07
3.3730181e-05
3.4635984e-07
8.677702e-07
3.2949411e-05
3.2587758e-07
7.9356872e-07
3.2233419e-05
3.0784049e-07
7.2733488e-07
3.1574711e-05
2.9172984e-07
6.6818104e-07
3.0966769e-05
2.7719265e-07
6.1530129e-07
3.0403928e-05
2.63981e-07
5.6797021e-07
2.9881258e-05
2.5190847e-07
5.2554316e-07
2.9394455e-05
2.4082712e-07
4.8745001e-07
2.8939761e-05
2.3062158e-07
4.5318333e-07
2.8513895e-05
2.2120155e-07
4.2229388e-07
2.8113985e-05
2.1249196e-07
3.9438674e-07
2.7737518e-05
2.0442797e-07
3.6911492e-07
2.7382285e-05
1.9695194e-07
3.4617386e-07
2.7046344e-05
1.900118e-07
3.252968e-07
2.6727982e-05
1.8355992e-07
3.0625045e-07
2.6425689e-05
1.7755276e-07
2.8883087e-07
2.6138123e-05
1.7195005e-07
2.7285984e-07
2.5864094e-05
1.6671515e-07
2.5818184e-07
2.5602546e-05
1.6181457e-07
2.4466092e-07
2.535253e-05
1.5721711e-07
2.3217765e-07
2.51132e-05
1.5289445e-07
2.2062727e-07
2.4883797e-05
1.48821e-07
2.0991774e-07
2.4663634e-05
1.4497366e-07
1.9996812e-07
2.4452094e-05
1.4133183e-07
1.9070705e-07
2.4248615e-05
1.3787696e-07
1.820715e-07
2.405269e-05
1.3459269e-07
1.7400572e-07
2.3863854e-05
1.3146462e-07
1.664599e-07
2.3681684e-05
1.2848057e-07
1.5938925e-07
2.3505794e-05
1.2562917e-07
1.5275409e-07
2.3335829e-05
1.2289867e-07
1.4651967e-07
2.3171462e-05
1.2027636e-07
1.406546e-07
2.3012394e-05
1.1775475e-07
1.351302e-07
2.2858345e-05
1.153297e-07
1.2992045e-07
2.2709057e-05
1.1299537e-07
1.2500172e-07
2.2564291e-05
1.1074518e-07
1.2035288e-07
2.2423824e-05
1.085735e-07
1.1595458e-07
2.2287451e-05
1.0647549e-07
1.1178922e-07
2.2154978e-05
1.04447e-07
1.0784079e-07
2.2026226e-05
1.024842e-07
1.0409459e-07
2.1901025e-05
1.0058354e-07
1.0053716e-07
2.1779218e-05
9.8741559e-08
9.7156142e-08
2.1660658e-05
9.6954889e-08
9.3940255e-08
2.1545205e-05
9.5221271e-08
9.0879032e-08
2.1432729e-05
9.3538774e-08
8.7962802e-08
2.1323107e-05
9.1905272e-08
8.5182602e-08
2.1216222e-05
9.0318494e-08
8.2530166e-08
2.1111965e-05
8.8776365e-08
7.9997894e-08
2.1010233e-05
8.7277096e-08
7.757865e-08
2.0910927e-05
8.5818957e-08
7.5265882e-08
2.0813956e-05
8.4400328e-08
7.3053455e-08
2.0719232e-05
8.301967e-08
7.0935651e-08
2.0626671e-05
8.1675627e-08
6.8907227e-08
2.0536195e-05
8.0366818e-08
6.6963126e-08
2.0447729e-05
7.9091945e-08
6.5098769e-08
2.0361203e-05
7.7849824e-08
6.3309781e-08
2.0276548e-05
7.6639237e-08
6.1592042e-08
2.0193702e-05
7.5458991e-08
5.994173e-08
2.0112602e-05
7.4307945e-08
5.8355223e-08
2.0033193e-05
7.3184917e-08
5.6829061e-08
1.9955419e-05
7.2088616e-08
5.5359969e-08
1.9879228e-05
7.1017629e-08
5.3944841e-08
1.9804572e-05
6.997046e-08
5.2580735e-08
1.9731406e-05
6.8945235e-08
5.1264803e-08
1.9659685e-05
6.7940111e-08
4.9994395e-08
1.9589371e-05
6.6953035e-08
4.8767065e-08
1.9520423e-05
6.5982356e-08
4.7580546e-08
1.9452807e-05
6.5028017e-08
4.6433107e-08
1.9386482e-05
6.4094102e-08
4.5323746e-08
1.9321404e-05
6.3194648e-08
4.4253079e-08
1.9257511e-05
6.236634e-08
4.3225213e-08
1.9194705e-05
6.1695181e-08
4.2253136e-08
1.9132798e-05
6.1374082e-08
4.1377396e-08
1.9071394e-05
6.1822402e-08
4.0750645e-08
1.9009424e-05
6.3924753e-08
4.1057592e-08
1.8944661e-05
6.9304693e-08
4.399882e-08
7.9170912e-08
7.4661545e-08
0.0001054937
1.9169871e-06
6.4880407e-06
0.00010005365
3.2729596e-06
6.5816334e-06
9.4926077e-05
3.8288995e-06
6.1580776e-06
8.9946373e-05
3.9838108e-06
5.9262629e-06
8.5163276e-05
3.9595077e-06
5.6547657e-06
8.0619137e-05
3.7899368e-06
5.3103784e-06
7.6329462e-05
3.5015547e-06
4.9350725e-06
7.230016e-05
3.1412013e-06
4.5559928e-06
6.8534206e-05
2.7514802e-06
4.1846641e-06
6.5032983e-05
2.3633493e-06
3.8278853e-06
6.1795789e-05
1.9984143e-06
3.490711e-06
5.8818843e-05
1.670376e-06
3.176301e-06
5.6094717e-05
1.3858295e-06
2.886043e-06
5.3612488e-05
1.1457945e-06
2.6200649e-06
5.1358373e-05
9.4764118e-07
2.3777043e-06
4.9316593e-05
7.8676782e-07
2.1578272e-06
4.7470246e-05
6.5779547e-07
1.9590391e-06
4.5802069e-05
5.553254e-07
1.7798252e-06
4.4295042e-05
4.7437115e-07
1.6186378e-06
4.293283e-05
4.1056665e-07
1.473948e-06
4.1700078e-05
3.6023235e-07
1.3442759e-06
4.0582591e-05
3.203574e-07
1.2282094e-06
3.956742e-05
2.8853735e-07
1.1244154e-06
3.8642881e-05
2.6289061e-07
1.0316467e-06
3.7798527e-05
2.4196982e-07
9.4874401e-07
3.7025076e-05
2.2467704e-07
8.746517e-07
3.6314324e-05
2.1018899e-07
8.084041e-07
3.5659057e-05
1.9788605e-07
7.4911043e-07
3.5052961e-05
1.8731585e-07
6.9597282e-07
3.4490519e-05
1.7814871e-07
6.482738e-07
3.3966922e-05
1.7013168e-07
6.053744e-07
3.3477973e-05
1.6306726e-07
5.6670865e-07
3.3020016e-05
1.5680298e-07
5.3177542e-07
3.2589865e-05
1.5122054e-07
5.001324e-07
3.218474e-05
1.462256e-07
4.7139137e-07
3.1802215e-05
1.4174073e-07
4.4521233e-07
3.1440168e-05
1.3770094e-07
4.2129809e-07
3.1096739e-05
1.3405092e-07
3.9938922e-07
3.0770297e-05
1.3074294e-07
3.7925954e-07
3.0459402e-05
1.2773517e-07
3.6071196e-07
3.0162787e-05
1.2499093e-07
3.435748e-07
2.9879325e-05
1.2247788e-07
3.276985e-07
2.960802e-05
1.2016733e-07
3.129527e-07
2.934798e-05
1.1803383e-07
2.9922353e-07
2.9098408e-05
1.1605462e-07
2.8641137e-07
2.885859e-05
1.1420984e-07
2.7442906e-07
2.8627882e-05
1.1248192e-07
2.632e-07
2.8405701e-05
1.1085559e-07
2.5265684e-07
2.819152e-05
1.0931759e-07
2.4274023e-07
2.7984859e-05
1.0785649e-07
2.3339756e-07
2.7785279e-05
1.0646284e-07
2.2458211e-07
2.7592378e-05
1.0512872e-07
2.1625215e-07
2.740579e-05
1.0384739e-07
2.0837036e-07
2.7225174e-05
1.0261119e-07
2.0090359e-07
2.705022e-05
1.0140745e-07
1.9382254e-07
2.6880641e-05
1.0023385e-07
1.8710039e-07
2.6716166e-05
9.9092345e-08
1.8071224e-07
2.6556546e-05
9.7979989e-08
1.7463558e-07
2.6401548e-05
9.6892479e-08
1.6885012e-07
2.6250957e-05
9.5827077e-08
1.6333737e-07
2.610457e-05
9.4781697e-08
1.5808042e-07
2.5962199e-05
9.3754732e-08
1.5306363e-07
2.5823666e-05
9.2744871e-08
1.4827263e-07
2.5688804e-05
9.1751021e-08
1.4369414e-07
2.5557458e-05
9.0771779e-08
1.3931599e-07
2.5429481e-05
8.9805181e-08
1.3512695e-07
2.5304734e-05
8.8851455e-08
1.3111645e-07
2.5183087e-05
8.7911202e-08
1.2727467e-07
2.5064416e-05
8.6983901e-08
1.2359243e-07
2.4948604e-05
8.6068857e-08
1.2006118e-07
2.4835542e-05
8.516577e-08
1.1667303e-07
2.4725124e-05
8.4274303e-08
1.1342045e-07
2.4617252e-05
8.3394246e-08
1.1029659e-07
2.4511832e-05
8.2525449e-08
1.072948e-07
2.4408775e-05
8.166771e-08
1.0440902e-07
2.4307997e-05
8.0820981e-08
1.0163344e-07
2.4209416e-05
7.9985015e-08
9.8962649e-08
2.4112956e-05
7.9159739e-08
9.6391544e-08
2.4018546e-05
7.8345e-08
9.3915305e-08
2.3926115e-05
7.7540677e-08
9.1529315e-08
2.3835598e-05
7.6746534e-08
8.9229285e-08
2.3746933e-05
7.5962331e-08
8.7011045e-08
2.366006e-05
7.5187682e-08
8.4870703e-08
2.3574922e-05
7.4422001e-08
8.2804534e-08
2.3491466e-05
7.3664615e-08
8.080893e-08
2.3409641e-05
7.291461e-08
7.8880367e-08
2.33294e-05
7.21707e-08
7.7015499e-08
2.3250698e-05
7.1431316e-08
7.521101e-08
2.3173493e-05
7.0694881e-08
7.3463658e-08
2.3097745e-05
6.9960232e-08
7.1770096e-08
2.3023418e-05
6.9227989e-08
7.0127007e-08
2.2950477e-05
6.85035e-08
6.8531162e-08
2.2878889e-05
6.7802877e-08
6.6979704e-08
2.2808619e-05
6.7165078e-08
6.5471554e-08
2.2739625e-05
6.6675245e-08
6.4013342e-08
2.267185e-05
6.6507072e-08
6.2642274e-08
2.2605149e-05
6.6990736e-08
6.1532329e-08
2.2538888e-05
6.8686039e-08
6.1499888e-08
2.2471121e-05
7.2226968e-08
6.4845106e-08
7.6722827e-08
9.8461356e-08
0.0001051979
1.3340885e-06
6.4961221e-06
9.9496561e-05
2.3731022e-06
6.6011947e-06
9.4262459e-05
2.9019223e-06
6.1610799e-06
8.9251186e-05
3.0856641e-06
5.9094196e-06
8.4493497e-05
3.0947347e-06
5.6224614e-06
8.0033635e-05
2.9846657e-06
5.265134e-06
7.5876907e-05
2.7790155e-06
4.8792667e-06
7.2014635e-05
2.5106844e-06
4.4927895e-06
6.8436293e-05
2.2128728e-06
4.1169489e-06
6.5131387e-05
1.9107259e-06
3.7575292e-06
6.208941e-05
1.6217321e-06
3.4186596e-06
5.9299432e-05
1.3573878e-06
3.1029661e-06
5.6749589e-05
1.1240344e-06
2.8116386e-06
5.4426788e-05
9.2377946e-07
2.5448157e-06
5.2316754e-05
7.55728e-07
2.3019466e-06
5.0404313e-05
6.1717855e-07
2.0820302e-06
4.8673788e-05
5.0454349e-07
1.8837772e-06
4.7109414e-05
4.1397181e-07
1.7057274e-06
4.5695713e-05
3.4173647e-07
1.5463363e-06
4.4417792e-05
2.8445143e-07
1.4040359e-06
4.3261575e-05
2.3917114e-07
1.2772781e-06
4.2213952e-05
2.0341499e-07
1.1645652e-06
4.1262871e-05
1.7514739e-07
1.0644719e-06
4.039737e-05
1.5273232e-07
9.7565901e-07
3.9607583e-05
1.348753e-07
8.9688146e-07
3.8884688e-05
1.2055567e-07
8.2701641e-07
3.8220848e-05
1.0901094e-07
7.6501856e-07
3.7609155e-05
9.9633831e-08
7.0994485e-07
3.7043542e-05
9.1977451e-08
6.6095085e-07
3.6518702e-05
8.5705816e-08
6.1728289e-07
3.6030009e-05
8.0552356e-08
5.7827309e-07
3.5573433e-05
7.6308253e-08
5.4333413e-07
3.5145475e-05
7.281126e-08
5.1195028e-07
3.4743091e-05
6.9934123e-08
4.8367021e-07
3.4363641e-05
6.7575477e-08
4.5810066e-07
3.4004828e-05
6.5652899e-08
4.3489998e-07
3.3664659e-05
6.4098597e-08
4.1377212e-07
3.3341393e-05
6.2855907e-08
3.9446094e-07
3.3033513e-05
6.1876996e-08
3.7674529e-07
3.2739693e-05
6.1121101e-08
3.6043426e-07
3.2458768e-05
6.0553064e-08
3.4536329e-07
3.2189712e-05
6.0142687e-08
3.3139057e-07
3.1931622e-05
5.9863675e-08
3.1839376e-07
3.1683696e-05
5.9693153e-08
3.0626733e-07
3.1445219e-05
5.9611213e-08
2.9492009e-07
3.1215555e-05
5.9600654e-08
2.8427317e-07
3.0994132e-05
5.9646549e-08
2.7425809e-07
3.0780436e-05
5.9736181e-08
2.6481542e-07
3.0574002e-05
5.9858681e-08
2.5589337e-07
3.0374407e-05
6.0004912e-08
2.4744662e-07
3.0181267e-05
6.0167653e-08
2.3943549e-07
2.9994229e-05
6.0341264e-08
2.3182486e-07
2.9812971e-05
6.0521818e-08
2.2458371e-07
2.9637193e-05
6.0704471e-08
2.1768454e-07
2.9466629e-05
6.0867279e-08
2.1110457e-07
2.9301024e-05
6.1016996e-08
2.0482178e-07
2.914014e-05
6.1160856e-08
1.9881568e-07
2.8983756e-05
6.1294969e-08
1.9306841e-07
2.8831669e-05
6.1415482e-08
1.875639e-07
2.8683688e-05
6.1520947e-08
1.8228761e-07
2.8539633e-05
6.161054e-08
1.7722633e-07
2.8399336e-05
6.1683784e-08
1.7236783e-07
2.8262639e-05
6.174049e-08
1.677009e-07
2.8129394e-05
6.1780685e-08
1.632152e-07
2.7999461e-05
6.1803869e-08
1.5890121e-07
2.7872709e-05
6.180736e-08
1.5475035e-07
2.7749012e-05
6.1793566e-08
1.5075446e-07
2.7628253e-05
6.1764845e-08
1.469056e-07
2.7510319e-05
6.1721001e-08
1.4319664e-07
2.7395105e-05
6.1662121e-08
1.3962085e-07
2.728251e-05
6.1588622e-08
1.3617202e-07
2.7172439e-05
6.1501054e-08
1.328442e-07
2.7064802e-05
6.1399949e-08
1.2963193e-07
2.6959511e-05
6.1285922e-08
1.265299e-07
2.6856486e-05
6.1159498e-08
1.2353327e-07
2.6755649e-05
6.1021292e-08
1.2063731e-07
2.6656924e-05
6.0871848e-08
1.1783764e-07
2.6560242e-05
6.0711704e-08
1.1513011e-07
2.6465535e-05
6.0541364e-08
1.1251079e-07
2.6372738e-05
6.036131e-08
1.099758e-07
2.6281791e-05
6.0171981e-08
1.0752159e-07
2.6192636e-05
5.9973544e-08
1.0514469e-07
2.6105215e-05
5.9766314e-08
1.028418e-07
2.6019477e-05
5.9550266e-08
1.0060973e-07
2.5935371e-05
5.9325129e-08
9.8445304e-08
2.585285e-05
5.9090474e-08
9.6345379e-08
2.5771868e-05
5.8845487e-08
9.4306929e-08
2.5692384e-05
5.8589012e-08
9.2326734e-08
2.5614357e-05
5.8319806e-08
9.0401456e-08
2.5537753e-05
5.8037087e-08
8.8527335e-08
2.5462539e-05
5.774165e-08
8.6700176e-08
2.5388689e-05
5.7438401e-08
8.4915186e-08
2.5316184e-05
5.7141422e-08
8.3166642e-08
2.5245017e-05
5.6882594e-08
8.1449629e-08
2.51752e-05
5.6726073e-08
7.9765831e-08
2.510677e-05
5.6787915e-08
7.8149201e-08
2.5039729e-05
5.7251604e-08
7.6780964e-08
2.4973573e-05
5.8330965e-08
7.6510191e-08
2.4906079e-05
5.9989499e-08
7.973215e-08
6.0715035e-08
1.1287825e-07
0.00010503672
9.0789373e-07
6.5005614e-06
9.9140653e-05
1.6524914e-06
6.6166801e-06
9.3788329e-05
2.0825241e-06
6.1717217e-06
8.8708526e-05
2.2549373e-06
5.91053e-06
8.3909682e-05
2.278404e-06
5.6151748e-06
7.9437109e-05
2.2074821e-06
5.2497564e-06
7.5296201e-05
2.0645348e-06
4.8553893e-06
7.1474034e-05
1.8722543e-06
4.4605969e-06
6.7955013e-05
1.6547667e-06
4.0771269e-06
6.4723621e-05
1.4313505e-06
3.7107669e-06
6.1764423e-05
1.2154297e-06
3.3655007e-06
5.9062056e-05
1.015864e-06
3.0438911e-06
5.6601108e-05
8.3782743e-07
2.7471548e-06
5.4365944e-05
6.8344646e-07
2.475497e-06
5.2340648e-05
5.5258527e-07
2.2284383e-06
5.0509125e-05
4.4366544e-07
2.0050361e-06
4.8855299e-05
3.5433454e-07
1.8040351e-06
4.7363353e-05
2.819359e-07
1.6239821e-06
4.6017963e-05
2.2381344e-07
1.4633127e-06
4.4804502e-05
1.7749381e-07
1.320418e-06
4.3709199e-05
1.4078085e-07
1.1936935e-06
4.2719248e-05
1.1179153e-07
1.081575e-06
4.1822875e-05
8.8954476e-08
9.8256582e-07
4.1009364e-05
7.0987953e-08
8.9525473e-07
4.0269054e-05
5.6861823e-08
8.1832383e-07
3.9593306e-05
4.5719143e-08
7.5058477e-07
3.8974405e-05
3.6977876e-08
6.9093436e-07
3.8405585e-05
3.0067395e-08
6.3838631e-07
3.7880869e-05
2.4650866e-08
5.9204239e-07
3.7395029e-05
2.0439972e-08
5.5110605e-07
3.6943514e-05
1.7190284e-08
5.1487714e-07
3.6522366e-05
1.4716729e-08
4.8273958e-07
3.6128148e-05
1.2874744e-08
4.5415389e-07
3.5757883e-05
1.154992e-08
4.2864944e-07
3.5408991e-05
1.0650785e-08
4.0581706e-07
3.5079238e-05
1.0103623e-08
3.8530228e-07
3.4766689e-05
9.848268e-09
3.6679878e-07
3.4469668e-05
9.8351197e-09
3.5004231e-07
3.4186716e-05
1.0022911e-08
3.3480553e-07
3.3916567e-05
1.037701e-08
3.208929e-07
3.3658116e-05
1.0868097e-08
3.0813662e-07
3.3410395e-05
1.1470982e-08
2.9639284e-07
3.3172556e-05
1.2164251e-08
2.8553829e-07
3.2943852e-05
1.2929286e-08
2.7546721e-07
3.2723625e-05
1.3750172e-08
2.6608896e-07
3.2511286e-05
1.4613068e-08
2.5732572e-07
3.2306316e-05
1.5506243e-08
2.4911069e-07
3.2108246e-05
1.6419584e-08
2.4138621e-07
3.1916658e-05
1.7344609e-08
2.3410269e-07
3.1731171e-05
1.827434e-08
2.2721715e-07
3.1551444e-05
1.9203159e-08
2.2069214e-07
3.1377162e-05
2.012777e-08
2.1449511e-07
3.1208038e-05
2.1048665e-08
2.0859679e-07
3.10438e-05
2.1972744e-08
2.0297054e-07
3.0884232e-05
2.2827857e-08
1.9760737e-07
3.0729103e-05
2.3662977e-08
1.9248227e-07
3.05782e-05
2.4490016e-08
1.8757383e-07
3.0431331e-05
2.529629e-08
1.8286763e-07
3.0288318e-05
2.6077979e-08
1.7835078e-07
3.0148994e-05
2.6834283e-08
1.7401102e-07
3.0013202e-05
2.7564693e-08
1.6983751e-07
2.9880797e-05
2.8268982e-08
1.6582026e-07
2.975164e-05
2.8947451e-08
1.6195016e-07
2.9625601e-05
2.960078e-08
1.5821897e-07
2.9502557e-05
3.0228529e-08
1.5461916e-07
2.9382396e-05
3.0823572e-08
1.5114466e-07
2.9265007e-05
3.1393113e-08
1.4778878e-07
2.9150287e-05
3.1939567e-08
1.4454539e-07
2.9038137e-05
3.2461864e-08
1.41409e-07
2.8928465e-05
3.2960075e-08
1.383746e-07
2.8821181e-05
3.3434694e-08
1.3543748e-07
2.8716203e-05
3.3886311e-08
1.3259329e-07
2.8613449e-05
3.431553e-08
1.2983786e-07
2.8512845e-05
3.4722845e-08
1.2716736e-07
2.8414317e-05
3.510896e-08
1.2457814e-07
2.8317797e-05
3.5474447e-08
1.2206679e-07
2.8223219e-05
3.5819884e-08
1.1963009e-07
2.813052e-05
3.6145909e-08
1.1726492e-07
2.803964e-05
3.6453058e-08
1.1496841e-07
2.7950522e-05
3.6741863e-08
1.1273776e-07
2.7863111e-05
3.7012821e-08
1.1057028e-07
2.7777355e-05
3.7266268e-08
1.0846343e-07
2.7693204e-05
3.7502477e-08
1.0641473e-07
2.7610611e-05
3.7721591e-08
1.0442173e-07
2.752953e-05
3.7923537e-08
1.0248202e-07
2.744992e-05
3.8107976e-08
1.0059305e-07
2.7371738e-05
3.8274268e-08
9.8752303e-08
2.7294949e-05
3.8421538e-08
9.695691e-08
2.7219516e-05
3.8548776e-08
9.5203645e-08
2.714541e-05
3.865514e-08
9.3488617e-08
2.7072603e-05
3.8741187e-08
9.1806955e-08
2.7001079e-05
3.8810289e-08
9.0152315e-08
2.6930832e-05
3.8872136e-08
8.8516582e-08
2.6861876e-05
3.8947393e-08
8.6890536e-08
2.679426e-05
3.9073535e-08
8.5269189e-08
2.6728065e-05
3.9306956e-08
8.367595e-08
2.6663337e-05
3.9708386e-08
8.2271177e-08
2.659956e-05
4.0272007e-08
8.18362e-08
2.6534295e-05
4.0698054e-08
8.4555728e-08
3.962085e-08
1.1507133e-07
0.00010494757
5.6811081e-07
6.5033076e-06
9.8925416e-05
1.0462983e-06
6.6283517e-06
9.3480449e-05
1.3439844e-06
6.1835066e-06
8.8341777e-05
1.4751324e-06
5.9184763e-06
8.3502084e-05
1.4993911e-06
5.6187065e-06
7.9004057e-05
1.4572411e-06
5.2482679e-06
7.4853978e-05
1.3667383e-06
4.8478757e-06
7.1037378e-05
1.2423973e-06
4.4464569e-06
6.7536063e-05
1.0997693e-06
4.0563127e-06
6.4331998e-05
9.5192358e-07
3.6834909e-06
6.1407318e-05
8.0805757e-07
3.3320524e-06
5.8744339e-05
6.7422205e-07
3.0046209e-06
5.6325632e-05
5.5404399e-07
2.7024907e-06
5.4133973e-05
4.4916749e-07
2.4259383e-06
5.2152298e-05
3.5972399e-07
2.174536e-06
5.0363747e-05
2.8484512e-07
1.9473718e-06
4.875178e-05
2.2310004e-07
1.7432015e-06
4.7300339e-05
1.7281163e-07
1.5605647e-06
4.5994012e-05
1.3226569e-07
1.3978748e-06
4.4818177e-05
9.9839988e-08
1.2534891e-06
4.3759121e-05
7.4075551e-08
1.1257614e-06
4.2804123e-05
5.3707587e-08
1.0130814e-06
4.1941503e-05
3.7671202e-08
9.1390378e-07
4.1160627e-05
2.5096459e-08
8.2676733e-07
4.0451891e-05
1.5294166e-08
7.5030388e-07
3.980679e-05
7.52817e-09
6.8329176e-07
3.9217543e-05
1.6727311e-09
6.2455199e-07
3.8677513e-05
-3.0330913e-09
5.7313081e-07
3.8180739e-05
-6.6486577e-09
5.2807352e-07
3.7722004e-05
-9.3594863e-09
4.8853451e-07
3.7296777e-05
-1.1371808e-08
4.5378924e-07
3.6901112e-05
-1.2818249e-08
4.2319913e-07
3.6531588e-05
-1.3805306e-08
3.962048e-07
3.6185236e-05
-1.4417487e-08
3.7231875e-07
3.5859491e-05
-1.4721888e-08
3.5111777e-07
3.5552132e-05
-1.4772645e-08
3.3223578e-07
3.5261237e-05
-1.4613933e-08
3.1535729e-07
3.4985143e-05
-1.4282195e-08
3.0021089e-07
3.472241e-05
-1.3807715e-08
2.8656378e-07
3.4471787e-05
-1.3215896e-08
2.7421634e-07
3.4232185e-05
-1.2528187e-08
2.6299773e-07
3.4002657e-05
-1.1762793e-08
2.5276175e-07
3.3782373e-05
-1.0935217e-08
2.4338335e-07
3.3570606e-05
-1.0058769e-08
2.3475559e-07
3.3366714e-05
-9.1447367e-09
2.2678673e-07
3.3170131e-05
-8.202825e-09
2.1939833e-07
3.2980356e-05
-7.2412388e-09
2.1252297e-07
3.279694e-05
-6.2669159e-09
2.0610284e-07
3.2619482e-05
-5.2855351e-09
2.0008788e-07
3.2447623e-05
-4.3018244e-09
1.944348e-07
3.228104e-05
-3.3190539e-09
1.8910587e-07
3.2119438e-05
-2.3383475e-09
1.8406733e-07
3.1962554e-05
-1.3530523e-09
1.7928646e-07
3.1810075e-05
-2.763554e-10
1.7472765e-07
3.1661878e-05
5.8580423e-10
1.7043905e-07
3.1517732e-05
1.4355929e-09
1.6637294e-07
3.1377429e-05
2.303832e-09
1.624896e-07
3.1240792e-05
3.1586296e-09
1.5877485e-07
3.1107656e-05
3.9969972e-09
1.5521721e-07
3.0977867e-05
4.8171808e-09
1.5180545e-07
3.0851284e-05
5.6179735e-09
1.4852964e-07
3.0727774e-05
6.3990283e-09
1.4538077e-07
3.0607209e-05
7.160937e-09
1.4235054e-07
3.0489473e-05
7.9059402e-09
1.394312e-07
3.037445e-05
8.6357452e-09
1.3661575e-07
3.0262049e-05
9.3206438e-09
1.3390398e-07
3.0152163e-05
9.9938272e-09
1.3128569e-07
3.0044697e-05
1.0650362e-08
1.2875516e-07
2.9939564e-05
1.1286733e-08
1.2630829e-07
2.983668e-05
1.190318e-08
1.2394088e-07
2.9735965e-05
1.2500111e-08
1.2164885e-07
2.9637345e-05
1.3077882e-08
1.1942844e-07
2.9540748e-05
1.3636712e-08
1.1727619e-07
2.9446105e-05
1.4177009e-08
1.1518884e-07
2.9353352e-05
1.4699182e-08
1.1316341e-07
2.9262425e-05
1.52035e-08
1.11197e-07
2.9173268e-05
1.5690472e-08
1.0928708e-07
2.9085822e-05
1.6160379e-08
1.0743108e-07
2.9000035e-05
1.6613587e-08
1.0562665e-07
2.8915855e-05
1.7050389e-08
1.0387154e-07
2.8833233e-05
1.7471087e-08
1.0216363e-07
2.8752123e-05
1.7875929e-08
1.0050082e-07
2.8672479e-05
1.8265081e-08
9.888111e-08
2.8594259e-05
1.8638531e-08
9.7302516e-08
2.8517424e-05
1.8996217e-08
9.576296e-08
2.8441934e-05
1.9337817e-08
9.426038e-08
2.8367753e-05
1.9662788e-08
9.279237e-08
2.8294848e-05
1.997047e-08
9.1356304e-08
2.8223187e-05
2.0259997e-08
8.9948882e-08
2.8152746e-05
2.053072e-08
8.8565947e-08
2.8083503e-05
2.078261e-08
8.72018e-08
2.8015447e-05
2.1017549e-08
8.5848707e-08
2.7948582e-05
2.1240755e-08
8.4495847e-08
2.7882937e-05
2.1462745e-08
8.3129513e-08
2.7818574e-05
2.1699968e-08
8.1736526e-08
2.7755588e-05
2.1969289e-08
8.0324361e-08
2.7694014e-05
2.2266149e-08
7.9016077e-08
2.7633299e-05
2.250627e-08
7.8480662e-08
2.7571004e-05
2.2393423e-08
8.0599433e-08
2.0993077e-08
1.0779946e-07
0.00010489986
2.7443376e-07
6.5049155e-06
9.8802772e-05
5.0716631e-07
6.6362236e-06
9.329591e-05
6.5854973e-07
6.1922972e-06
8.8116302e-05
7.2902543e-07
5.9257148e-06
8.3248198e-05
7.4378812e-07