/*--------------------------------*- C++ -*----------------------------------*\
  =========                 |
  \\      /  F ield         | OpenFOAM: The Open Source CFD Toolbox
   \\    /   O peration     | Website:  https://openfoam.org
    \\  /    A nd           | Version:  7
     \\/     M anipulation  |
\*---------------------------------------------------------------------------*/
FoamFile
{
    version     2.0;
    format      ascii;
    class       surfaceScalarField;
    location    "1900/water";
    object      phi;
}
// * * * * * * * * * * * * * * * * * * * * * * * * * * * * * * * * * * * * * //

dimensions      [1 0 -1 0 0 0 0];

internalField   nonuniform List<scalar> 
156660
(
9.905724e-05
6.0010402e-06
6.0528092e-06
8.6847498e-05
6.0555113e-06
6.1542307e-06
7.5687891e-05
5.5111362e-06
5.6484701e-06
6.5441704e-05
5.0404181e-06
5.2057689e-06
5.6267661e-05
4.4956436e-06
4.6783992e-06
4.8318019e-05
3.8797648e-06
4.0698777e-06
4.1624776e-05
3.2524448e-06
3.4407982e-06
3.6124897e-05
2.660462e-06
2.839417e-06
3.1692235e-05
2.1345127e-06
2.2981489e-06
2.8162841e-05
1.6926975e-06
1.8366964e-06
2.5361437e-05
1.3399934e-06
1.4614113e-06
2.3124664e-05
1.0698477e-06
1.1669256e-06
2.1315127e-05
8.6875419e-07
9.4078224e-07
1.9825714e-05
7.2110065e-07
7.6831273e-07
1.8577278e-05
6.1248245e-07
6.3595306e-07
1.7513255e-05
5.3125216e-07
5.3277147e-07
1.6593744e-05
4.6879722e-07
4.5071348e-07
1.5790433e-05
4.1913717e-07
3.8417387e-07
1.5082784e-05
3.7829068e-07
3.2935847e-07
1.4455417e-05
3.4367127e-07
2.8369562e-07
1.3896409e-05
3.1361408e-07
2.4539333e-07
1.339622e-05
2.8704451e-07
2.1314454e-07
1.2947015e-05
2.632603e-07
1.8594512e-07
1.2542237e-05
2.4179366e-07
1.6298461e-07
1.2176318e-05
2.2232208e-07
1.4359688e-07
1.1844484e-05
2.046148e-07
1.2721879e-07
1.1542609e-05
1.8849496e-07
1.1337973e-07
1.1267116e-05
1.7381573e-07
1.0167793e-07
1.1014892e-05
1.6046273e-07
9.1760832e-08
1.0783252e-05
1.4833967e-07
8.3300625e-08
1.0569851e-05
1.3734905e-07
7.6052155e-08
1.0372614e-05
1.2738862e-07
6.9848313e-08
1.0189731e-05
1.1836808e-07
6.4514832e-08
1.001963e-05
1.1020448e-07
5.9896636e-08
9.8609388e-06
1.0281921e-07
5.5871672e-08
9.7124594e-06
9.6137937e-08
5.2341383e-08
9.5731439e-06
9.0091159e-08
4.9224373e-08
9.4420759e-06
8.461446e-08
4.6453582e-08
9.3184531e-06
7.9648652e-08
4.3974137e-08
9.2015723e-06
7.5139686e-08
4.1741085e-08
9.0908166e-06
7.1038116e-08
3.9717582e-08
8.9856432e-06
6.7301129e-08
3.7872305e-08
8.8855707e-06
6.3894253e-08
3.6178148e-08
8.7901757e-06
6.0780113e-08
3.461495e-08
8.6990829e-06
5.7926172e-08
3.3166649e-08
8.6119591e-06
5.530372e-08
3.1820124e-08
8.5285072e-06
5.2887433e-08
3.0564408e-08
8.4484618e-06
5.0655084e-08
2.9390258e-08
8.3715848e-06
4.8587046e-08
2.8290025e-08
8.2976614e-06
4.666619e-08
2.7257207e-08
8.2264975e-06
4.487748e-08
2.6286395e-08
8.1579202e-06
4.3208784e-08
2.5368528e-08
8.0917731e-06
4.1649037e-08
2.4498032e-08
8.0279108e-06
4.0186997e-08
2.3675358e-08
7.9662006e-06
3.8812669e-08
2.2897519e-08
7.9065219e-06
3.751839e-08
2.2160245e-08
7.8487639e-06
3.6297875e-08
2.1460166e-08
7.7928242e-06
3.5145176e-08
2.0794609e-08
7.7386084e-06
3.4054671e-08
2.0161109e-08
7.6860293e-06
3.3021346e-08
1.9557686e-08
7.6350062e-06
3.2040792e-08
1.8982245e-08
7.5854641e-06
3.1109054e-08
1.8433099e-08
7.537333e-06
3.0222645e-08
1.7908482e-08
7.4905478e-06
2.9378236e-08
1.7407e-08
7.4450476e-06
2.8573005e-08
1.6927187e-08
7.4007756e-06
2.7804223e-08
1.6467796e-08
7.3576783e-06
2.7069586e-08
1.602766e-08
7.3157056e-06
2.636706e-08
1.5605631e-08
7.2748103e-06
2.5694639e-08
1.52007e-08
7.2349479e-06
2.5050552e-08
1.4811836e-08
7.1960766e-06
2.4433094e-08
1.4438214e-08
7.158157e-06
2.3840694e-08
1.4078941e-08
7.1211518e-06
2.3271904e-08
1.3733266e-08
7.0850258e-06
2.2725481e-08
1.3400521e-08
7.0497456e-06
2.2200205e-08
1.3079953e-08
7.0152798e-06
2.1694933e-08
1.2770914e-08
6.9815985e-06
2.1208572e-08
1.2472732e-08
6.9486733e-06
2.0740236e-08
1.2184937e-08
6.9164775e-06
2.0288985e-08
1.1906821e-08
6.8849857e-06
1.9853963e-08
1.1637837e-08
6.8541739e-06
1.9434358e-08
1.1377467e-08
6.8240193e-06
1.9029488e-08
1.112511e-08
6.7945006e-06
1.863849e-08
1.0880247e-08
6.7655975e-06
1.8260756e-08
1.0642305e-08
6.7372912e-06
1.7895547e-08
1.0410766e-08
6.7095641e-06
1.7542101e-08
1.0185111e-08
6.6823995e-06
1.7199647e-08
9.9648677e-09
6.6557824e-06
1.6867277e-08
9.7498112e-09
6.6296983e-06
1.6544125e-08
9.5399827e-09
6.604133e-06
1.6229271e-08
9.3359999e-09
6.5790714e-06
1.5921984e-08
9.1396718e-09
6.554494e-06
1.5622326e-08
8.9550893e-09
6.5303708e-06
1.5332542e-08
8.7906488e-09
6.5066467e-06
1.5060444e-08
8.6636071e-09
6.4832094e-06
1.4827802e-08
8.6095004e-09
6.4598103e-06
1.4693089e-08
8.7060285e-09
6.4358387e-06
1.4826384e-08
9.1451173e-09
6.4096302e-06
1.5741722e-08
1.0466755e-08
6.3782854e-06
1.8026579e-08
1.3318203e-08
3.2300204e-08
2.7923517e-08
0.00010646494
4.1872385e-06
6.4599816e-06
0.0001002019
5.695418e-06
6.6231353e-06
9.3659588e-05
5.7790389e-06
6.2744098e-06
8.7011589e-05
5.6514782e-06
6.0369387e-06
8.0422927e-05
5.3669119e-06
5.7173941e-06
7.4094022e-05
4.9022832e-06
5.3063863e-06
6.8167026e-05
4.3278135e-06
4.8516272e-06
6.2722565e-05
3.717891e-06
4.387032e-06
5.7799049e-05
3.1243144e-06
3.9337145e-06
5.3403345e-05
2.5820689e-06
3.5063329e-06
4.9517402e-05
2.1121062e-06
3.1138299e-06
4.6105482e-05
1.7220197e-06
2.7597473e-06
4.3121558e-05
1.4089355e-06
2.4437429e-06
4.0515558e-05
1.1637552e-06
2.163346e-06
3.8237948e-05
9.7485849e-07
1.9152336e-06
3.6242683e-05
8.3055975e-07
1.6959573e-06
3.4488759e-05
7.2043696e-07
1.5022849e-06
3.2940716e-05
6.3586296e-07
1.3313172e-06
3.1568463e-05
5.7005004e-07
1.1804931e-06
3.0346733e-05
5.1784897e-07
1.0475522e-06
2.9254398e-05
4.7545953e-07
9.3049035e-07
2.8273782e-05
4.4013958e-07
8.2752023e-07
2.7390054e-05
4.0994894e-07
7.3704011e-07
2.6590699e-05
3.8353955e-07
6.5760855e-07
2.5865102e-05
3.599889e-07
5.8793074e-07
2.5204197e-05
3.3867631e-07
5.2684261e-07
2.4600205e-05
3.1918359e-07
4.7330348e-07
2.4046429e-05
3.012019e-07
4.2639017e-07
2.3537073e-05
2.8455208e-07
3.8526716e-07
2.3067119e-05
2.6911102e-07
3.491824e-07
2.2632208e-05
2.5478166e-07
3.1747787e-07
2.2228528e-05
2.4147384e-07
2.8959533e-07
2.1852744e-05
2.2911072e-07
2.6504126e-07
2.1501947e-05
2.1762895e-07
2.433726e-07
2.1173591e-05
2.0696952e-07
2.2420575e-07
2.0865444e-05
1.9707565e-07
2.0720867e-07
2.0575549e-05
1.8789249e-07
1.9209397e-07
2.0302183e-05
1.7936717e-07
1.7861342e-07
2.0043829e-05
1.7144909e-07
1.6655324e-07
1.979915e-05
1.6408981e-07
1.5572942e-07
1.956696e-05
1.5724382e-07
1.4598406e-07
1.934621e-05
1.5086891e-07
1.3718219e-07
1.9135969e-05
1.449265e-07
1.2920881e-07
1.8935407e-05
1.3937905e-07
1.2196307e-07
1.8743783e-05
1.3419229e-07
1.1535763e-07
1.8560435e-05
1.293351e-07
1.0931728e-07
1.8384766e-05
1.2477909e-07
1.0377714e-07
1.8216241e-05
1.2049853e-07
9.8681271e-08
1.8054377e-05
1.164701e-07
9.3981294e-08
1.7898734e-05
1.1267293e-07
8.9635419e-08
1.7748917e-05
1.0908822e-07
8.5606991e-08
1.7604563e-05
1.0570004e-07
8.1862413e-08
1.7465345e-05
1.0249339e-07
7.8373284e-08
1.7330962e-05
9.9452989e-08
7.5116961e-08
1.7201138e-05
9.6564401e-08
7.2072726e-08
1.7075619e-05
9.3816656e-08
6.9221168e-08
1.695417e-05
9.1201116e-08
6.6545108e-08
1.6836577e-05
8.8709151e-08
6.4029573e-08
1.6722638e-05
8.6331982e-08
6.1661064e-08
1.661217e-05
8.4061769e-08
5.9427687e-08
1.6505001e-05
8.1891489e-08
5.7318837e-08
1.640097e-05
7.9814919e-08
5.5324845e-08
1.6299929e-05
7.7826132e-08
5.3437107e-08
1.620174e-05
7.5919846e-08
5.1647876e-08
1.6106272e-05
7.4091033e-08
4.9950095e-08
1.6013404e-05
7.233498e-08
4.833736e-08
1.5923022e-05
7.0647717e-08
4.6803882e-08
1.5835019e-05
6.9025732e-08
4.5344255e-08
1.5749294e-05
6.7465506e-08
4.3953734e-08
1.5665753e-05
6.5963738e-08
4.2627732e-08
1.5584307e-05
6.4517335e-08
4.1362186e-08
1.5504871e-05
6.312337e-08
4.0153369e-08
1.5427365e-05
6.177927e-08
3.8997788e-08
1.5351716e-05
6.0482544e-08
3.789228e-08
1.5277852e-05
5.923081e-08
3.6833852e-08
1.5205705e-05
5.8022016e-08
3.5819728e-08
1.5135212e-05
5.6854012e-08
3.4847358e-08
1.5066313e-05
5.5724971e-08
3.3914365e-08
1.499895e-05
5.4633136e-08
3.3018402e-08
1.493307e-05
5.357673e-08
3.2157424e-08
1.4868621e-05
5.2554209e-08
3.1329441e-08
1.4805554e-05
5.1563965e-08
3.053244e-08
1.4743823e-05
5.0604509e-08
2.9764674e-08
1.4683386e-05
4.9674295e-08
2.9024379e-08
1.4624199e-05
4.8771833e-08
2.8309864e-08
1.4566226e-05
4.7895465e-08
2.7619559e-08
1.4509431e-05
4.7043504e-08
2.6951965e-08
1.4453778e-05
4.6214107e-08
2.6305763e-08
1.4399237e-05
4.5405379e-08
2.5679859e-08
1.4345777e-05
4.4615701e-08
2.5073774e-08
1.4293367e-05
4.3844265e-08
2.4487693e-08
1.4241972e-05
4.3092838e-08
2.3923714e-08
1.4191548e-05
4.2369901e-08
2.3387128e-08
1.4142019e-05
4.1699272e-08
2.2889652e-08
1.4093249e-05
4.1141606e-08
2.2456622e-08
1.4044951e-05
4.0844607e-08
2.2146537e-08
1.3996485e-05
4.1169187e-08
2.2123039e-08
1.3946229e-05
4.301229e-08
2.2985405e-08
1.389015e-05
4.8540248e-08
2.5565817e-08
6.3281516e-08
5.0000863e-08
0.00010603565
2.7876425e-06
6.4750379e-06
0.00010074799
4.4145412e-06
6.5685292e-06
9.5493515e-05
4.8594028e-06
6.1741158e-06
9.0256432e-05
4.930369e-06
5.9581921e-06
8.5101366e-05
4.8311767e-06
5.6908012e-06
8.0102875e-05
4.5561761e-06
5.3445981e-06
7.5322251e-05
4.1469521e-06
4.9614853e-06
7.0803266e-05
3.6678925e-06
4.5689837e-06
6.6576264e-05
3.1701903e-06
4.1811255e-06
6.2660725e-05
2.6900109e-06
3.8075976e-06
5.9065443e-05
2.2519319e-06
3.4554566e-06
5.5788936e-05
1.8697304e-06
3.1287958e-06
5.2820978e-05
1.5477473e-06
2.8291458e-06
5.014479e-05
1.2836302e-06
2.5563139e-06
4.7739304e-05
1.07123e-06
2.3091141e-06
4.5581183e-05
9.0281504e-07
2.0858661e-06
4.3646423e-05
7.7048779e-07
1.884709e-06
4.1911533e-05
6.6697375e-07
1.7037793e-06
4.0354306e-05
5.8598202e-07
1.5412951e-06
3.8954268e-05
5.2230222e-07
1.3955849e-06
3.769288e-05
4.7175603e-07
1.265091e-06
3.6553576e-05
4.3107984e-07
1.1483634e-06
3.552169e-05
3.9778207e-07
1.0440533e-06
3.4584322e-05
3.6999882e-07
9.509083e-07
3.3730181e-05
3.4635987e-07
8.6777018e-07
3.2949411e-05
3.2587763e-07
7.935687e-07
3.2233419e-05
3.0784049e-07
7.2733484e-07
3.1574711e-05
2.9172985e-07
6.6818106e-07
3.0966769e-05
2.7719266e-07
6.1530127e-07
3.0403928e-05
2.6398102e-07
5.6797023e-07
2.9881258e-05
2.5190848e-07
5.2554315e-07
2.9394455e-05
2.4082711e-07
4.8745e-07
2.8939761e-05
2.306216e-07
4.5318328e-07
2.8513895e-05
2.2120153e-07
4.2229388e-07
2.8113985e-05
2.1249193e-07
3.9438675e-07
2.7737518e-05
2.0442795e-07
3.6911492e-07
2.7382285e-05
1.9695191e-07
3.4617384e-07
2.7046344e-05
1.9001176e-07
3.252968e-07
2.6727982e-05
1.8355992e-07
3.0625044e-07
2.6425689e-05
1.7755272e-07
2.8883083e-07
2.6138123e-05
1.7195e-07
2.7285984e-07
2.5864094e-05
1.6671517e-07
2.5818184e-07
2.5602546e-05
1.6181456e-07
2.4466093e-07
2.535253e-05
1.5721709e-07
2.3217765e-07
2.51132e-05
1.5289443e-07
2.2062727e-07
2.4883797e-05
1.4882096e-07
2.0991774e-07
2.4663634e-05
1.4497366e-07
1.9996811e-07
2.4452094e-05
1.4133183e-07
1.9070706e-07
2.4248615e-05
1.3787698e-07
1.8207151e-07
2.405269e-05
1.3459268e-07
1.7400571e-07
2.3863854e-05
1.3146463e-07
1.6645989e-07
2.3681684e-05
1.2848061e-07
1.5938924e-07
2.3505794e-05
1.2562918e-07
1.527541e-07
2.3335829e-05
1.2289872e-07
1.4651967e-07
2.3171462e-05
1.2027638e-07
1.406546e-07
2.3012394e-05
1.1775478e-07
1.3513023e-07
2.2858345e-05
1.1532969e-07
1.2992043e-07
2.2709057e-05
1.1299537e-07
1.2500171e-07
2.2564291e-05
1.1074518e-07
1.2035287e-07
2.2423824e-05
1.0857346e-07
1.1595454e-07
2.2287451e-05
1.0647548e-07
1.1178923e-07
2.2154978e-05
1.0444701e-07
1.0784078e-07
2.2026226e-05
1.0248417e-07
1.0409458e-07
2.1901025e-05
1.0058351e-07
1.0053715e-07
2.1779218e-05
9.87415e-08
9.7156134e-08
2.1660658e-05
9.6954889e-08
9.3940266e-08
2.1545205e-05
9.5221281e-08
9.0879034e-08
2.1432729e-05
9.3538821e-08
8.7962808e-08
2.1323107e-05
9.1905304e-08
8.5182634e-08
2.1216222e-05
9.0318529e-08
8.2530222e-08
2.1111965e-05
8.8776431e-08
7.9997893e-08
2.1010233e-05
8.7277112e-08
7.7578665e-08
2.0910927e-05
8.5818939e-08
7.5265899e-08
2.0813956e-05
8.4400315e-08
7.3053475e-08
2.0719232e-05
8.3019704e-08
7.0935673e-08
2.0626671e-05
8.1675642e-08
6.8907208e-08
2.0536195e-05
8.0366811e-08
6.6963118e-08
2.0447729e-05
7.9091965e-08
6.5098791e-08
2.0361203e-05
7.7849822e-08
6.3309763e-08
2.0276548e-05
7.6639208e-08
6.1592063e-08
2.0193702e-05
7.5458967e-08
5.9941732e-08
2.0112602e-05
7.4307953e-08
5.8355258e-08
2.0033193e-05
7.3184919e-08
5.6829094e-08
1.9955419e-05
7.2088625e-08
5.5359968e-08
1.9879228e-05
7.1017654e-08
5.3944862e-08
1.9804572e-05
6.9970468e-08
5.2580733e-08
1.9731406e-05
6.8945248e-08
5.1264784e-08
1.9659685e-05
6.7940131e-08
4.9994375e-08
1.9589371e-05
6.6953015e-08
4.8767044e-08
1.9520423e-05
6.5982344e-08
4.7580549e-08
1.9452807e-05
6.5028001e-08
4.643311e-08
1.9386482e-05
6.4094102e-08
4.5323763e-08
1.9321404e-05
6.3194671e-08
4.4253091e-08
1.9257511e-05
6.2366342e-08
4.3225243e-08
1.9194705e-05
6.169515e-08
4.2253128e-08
1.9132798e-05
6.1374045e-08
4.1377406e-08
1.9071394e-05
6.1822385e-08
4.0750662e-08
1.9009424e-05
6.3924733e-08
4.1057621e-08
1.8944661e-05
6.9304674e-08
4.3998833e-08
7.9170962e-08
7.4661536e-08
0.0001054937
1.9169871e-06
6.4880406e-06
0.00010005365
3.2729596e-06
6.5816334e-06
9.4926077e-05
3.8288995e-06
6.1580776e-06
8.9946373e-05
3.9838108e-06
5.9262629e-06
8.5163276e-05
3.9595077e-06
5.6547657e-06
8.0619137e-05
3.7899368e-06
5.3103784e-06
7.6329462e-05
3.5015547e-06
4.9350725e-06
7.230016e-05
3.1412013e-06
4.5559928e-06
6.8534206e-05
2.7514802e-06
4.1846641e-06
6.5032983e-05
2.3633493e-06
3.8278852e-06
6.1795789e-05
1.9984143e-06
3.490711e-06
5.8818843e-05
1.6703759e-06
3.176301e-06
5.6094717e-05
1.3858295e-06
2.886043e-06
5.3612488e-05
1.1457945e-06
2.6200649e-06
5.1358373e-05
9.4764117e-07
2.3777043e-06
4.9316593e-05
7.8676781e-07
2.1578272e-06
4.7470246e-05
6.5779545e-07
1.9590391e-06
4.5802069e-05
5.5532542e-07
1.7798252e-06
4.4295042e-05
4.7437114e-07
1.6186378e-06
4.293283e-05
4.1056666e-07
1.473948e-06
4.1700078e-05
3.6023237e-07
1.3442759e-06
4.0582591e-05
3.2035745e-07
1.2282094e-06
3.956742e-05
2.8853737e-07
1.1244154e-06
3.8642881e-05
2.6289065e-07
1.0316467e-06
3.7798527e-05
2.4196987e-07
9.4874402e-07
3.7025076e-05
2.2467708e-07
8.7465172e-07
3.6314324e-05
2.1018903e-07
8.0840411e-07
3.5659057e-05
1.9788605e-07
7.4911044e-07
3.5052961e-05
1.8731582e-07
6.9597281e-07
3.449052e-05
1.7814869e-07
6.4827379e-07
3.3966922e-05
1.7013172e-07
6.0537443e-07
3.3477973e-05
1.6306726e-07
5.6670864e-07
3.3020016e-05
1.5680295e-07
5.3177542e-07
3.2589865e-05
1.5122053e-07
5.0013242e-07
3.218474e-05
1.4622561e-07
4.7139137e-07
3.1802215e-05
1.4174073e-07
4.4521234e-07
3.1440168e-05
1.3770095e-07
4.2129811e-07
3.1096739e-05
1.3405093e-07
3.9938923e-07
3.0770297e-05
1.3074293e-07
3.7925955e-07
3.0459402e-05
1.2773518e-07
3.6071196e-07
3.0162787e-05
1.2499091e-07
3.4357482e-07
2.9879325e-05
1.2247784e-07
3.2769853e-07
2.960802e-05
1.2016733e-07
3.1295272e-07
2.934798e-05
1.180338e-07
2.9922354e-07
2.9098408e-05
1.1605463e-07
2.8641138e-07
2.885859e-05
1.1420983e-07
2.7442904e-07
2.8627882e-05
1.1248192e-07
2.6319999e-07
2.8405701e-05
1.1085559e-07
2.5265685e-07
2.819152e-05
1.0931758e-07
2.4274022e-07
2.7984859e-05
1.0785651e-07
2.3339758e-07
2.7785279e-05
1.0646282e-07
2.2458214e-07
2.7592378e-05
1.0512872e-07
2.1625213e-07
2.740579e-05
1.0384736e-07
2.0837036e-07
2.7225174e-05
1.0261117e-07
2.009036e-07
2.705022e-05
1.0140747e-07
1.9382258e-07
2.6880641e-05
1.0023384e-07
1.8710041e-07
2.6716166e-05
9.9092349e-08
1.8071221e-07
2.6556546e-05
9.7979969e-08
1.7463555e-07
2.6401548e-05
9.6892516e-08
1.6885013e-07
2.6250957e-05
9.5827094e-08
1.6333739e-07
2.610457e-05
9.4781692e-08
1.5808042e-07
2.5962199e-05
9.3754723e-08
1.5306363e-07
2.5823666e-05
9.2744894e-08
1.482726e-07
2.5688804e-05
9.1750998e-08
1.4369411e-07
2.5557458e-05
9.0771787e-08
1.3931598e-07
2.5429481e-05
8.9805209e-08
1.3512692e-07
2.5304734e-05
8.8851471e-08
1.3111643e-07
2.5183087e-05
8.791121e-08
1.2727469e-07
2.5064416e-05
8.6983924e-08
1.2359244e-07
2.4948604e-05
8.6068934e-08
1.2006122e-07
2.4835542e-05
8.5165774e-08
1.1667303e-07
2.4725124e-05
8.4274302e-08
1.1342049e-07
2.4617252e-05
8.3394292e-08
1.1029658e-07
2.4511832e-05
8.2525456e-08
1.0729481e-07
2.4408775e-05
8.1667754e-08
1.04409e-07
2.4307997e-05
8.0820993e-08
1.0163344e-07
2.4209416e-05
7.9985026e-08
9.8962658e-08
2.4112956e-05
7.9159741e-08
9.6391536e-08
2.4018546e-05
7.8345027e-08
9.3915288e-08
2.3926115e-05
7.7540714e-08
9.1529308e-08
2.3835598e-05
7.6746537e-08
8.9229249e-08
2.3746933e-05
7.596229e-08
8.7011038e-08
2.366006e-05
7.5187616e-08
8.4870713e-08
2.3574922e-05
7.4421957e-08
8.2804535e-08
2.3491466e-05
7.3664629e-08
8.0808918e-08
2.3409641e-05
7.2914649e-08
7.8880402e-08
2.33294e-05
7.2170701e-08
7.7015523e-08
2.3250698e-05
7.1431307e-08
7.5211025e-08
2.3173493e-05
7.0694854e-08
7.3463659e-08
2.3097745e-05
6.9960214e-08
7.1770064e-08
2.3023418e-05
6.9227963e-08
7.0127013e-08
2.2950477e-05
6.8503497e-08
6.8531174e-08
2.2878889e-05
6.7802845e-08
6.6979716e-08
2.2808619e-05
6.7165036e-08
6.5471589e-08
2.2739625e-05
6.6675214e-08
6.4013351e-08
2.267185e-05
6.6507064e-08
6.2642311e-08
2.2605149e-05
6.6990707e-08
6.1532353e-08
2.2538888e-05
6.8686018e-08
6.1499904e-08
2.2471121e-05
7.2226966e-08
6.4845118e-08
7.6722829e-08
9.8461296e-08
0.0001051979
1.3340884e-06
6.4961221e-06
9.9496561e-05
2.3731022e-06
6.6011947e-06
9.4262459e-05
2.9019223e-06
6.1610799e-06
8.9251186e-05
3.0856641e-06
5.9094196e-06
8.4493497e-05
3.0947346e-06
5.6224614e-06
8.0033635e-05
2.9846656e-06
5.2651341e-06
7.5876907e-05
2.7790155e-06
4.8792667e-06
7.2014635e-05
2.5106844e-06
4.4927895e-06
6.8436293e-05
2.2128728e-06
4.1169489e-06
6.5131387e-05
1.9107259e-06
3.7575291e-06
6.208941e-05
1.621732e-06
3.4186596e-06
5.9299432e-05
1.3573877e-06
3.1029661e-06
5.6749589e-05
1.1240344e-06
2.8116387e-06
5.4426788e-05
9.2377945e-07
2.5448158e-06
5.2316754e-05
7.55728e-07
2.3019466e-06
5.0404313e-05
6.1717855e-07
2.0820302e-06
4.8673788e-05
5.0454346e-07
1.8837772e-06
4.7109414e-05
4.1397179e-07
1.7057274e-06
4.5695713e-05
3.4173649e-07
1.5463363e-06
4.4417792e-05
2.8445145e-07
1.4040359e-06
4.3261575e-05
2.3917113e-07
1.2772781e-06
4.2213952e-05
2.0341504e-07
1.1645652e-06
4.1262871e-05
1.7514745e-07
1.0644718e-06
4.039737e-05
1.5273237e-07
9.7565899e-07
3.9607583e-05
1.3487528e-07
8.9688144e-07
3.8884688e-05
1.2055569e-07
8.2701641e-07
3.8220848e-05
1.0901092e-07
7.6501855e-07
3.7609155e-05
9.9633871e-08
7.0994489e-07
3.7043542e-05
9.1977442e-08
6.6095088e-07
3.6518702e-05
8.5705828e-08
6.1728289e-07
3.6030009e-05
8.0552374e-08
5.7827312e-07
3.5573433e-05
7.630827e-08
5.4333411e-07
3.5145475e-05
7.2811255e-08
5.1195028e-07
3.4743091e-05
6.9934143e-08
4.8367023e-07
3.4363641e-05
6.7575476e-08
4.5810066e-07
3.4004828e-05
6.5652905e-08
4.3489997e-07
3.3664659e-05
6.4098615e-08
4.1377212e-07
3.3341393e-05
6.2855951e-08
3.9446095e-07
3.3033513e-05
6.1877067e-08
3.7674528e-07
3.2739693e-05
6.1121113e-08
3.6043423e-07
3.2458768e-05
6.055307e-08
3.4536329e-07
3.2189712e-05
6.0142668e-08
3.3139055e-07
3.1931622e-05
5.986366e-08
3.1839376e-07
3.1683696e-05
5.9693149e-08
3.0626734e-07
3.1445219e-05
5.9611185e-08
2.9492011e-07
3.1215555e-05
5.960062e-08
2.8427316e-07
3.0994132e-05
5.9646547e-08
2.7425807e-07
3.0780436e-05
5.9736194e-08
2.6481539e-07
3.0574002e-05
5.9858683e-08
2.5589333e-07
3.0374407e-05
6.0004954e-08
2.474466e-07
3.0181267e-05
6.0167628e-08
2.3943544e-07
2.9994229e-05
6.0341251e-08
2.3182483e-07
2.9812971e-05
6.0521801e-08
2.2458374e-07
2.9637193e-05
6.070448e-08
2.1768454e-07
2.9466629e-05
6.0867291e-08
2.1110457e-07
2.9301024e-05
6.1017011e-08
2.0482179e-07
2.914014e-05
6.1160891e-08
1.9881569e-07
2.8983756e-05
6.1294922e-08
1.9306838e-07
2.8831669e-05
6.141549e-08
1.8756388e-07
2.8683688e-05
6.1520943e-08
1.8228763e-07
2.8539633e-05
6.1610572e-08
1.7722632e-07
2.8399336e-05
6.1683814e-08
1.723678e-07
2.8262639e-05
6.1740494e-08
1.677009e-07
2.8129394e-05
6.1780687e-08
1.6321519e-07
2.7999461e-05
6.1803888e-08
1.5890122e-07
2.7872709e-05
6.180737e-08
1.5475037e-07
2.7749012e-05
6.1793561e-08
1.5075442e-07
2.7628253e-05
6.1764845e-08
1.469056e-07
2.7510319e-05
6.1721009e-08
1.4319662e-07
2.7395105e-05
6.1662117e-08
1.3962087e-07
2.728251e-05
6.1588629e-08
1.3617203e-07
2.7172439e-05
6.1501074e-08
1.3284422e-07
2.7064802e-05
6.1399999e-08
1.2963191e-07
2.6959511e-05
6.1285961e-08
1.2652992e-07
2.6856486e-05
6.1159519e-08
1.2353324e-07
2.6755649e-05
6.1021307e-08
1.2063731e-07
2.6656924e-05
6.087186e-08
1.1783767e-07
2.6560242e-05
6.0711718e-08
1.1513015e-07
2.6465535e-05
6.0541374e-08
1.1251079e-07
2.6372738e-05
6.0361305e-08
1.0997579e-07
2.6281791e-05
6.0171945e-08
1.0752158e-07
2.6192636e-05
5.997353e-08
1.0514469e-07
2.6105215e-05
5.9766338e-08
1.0284183e-07
2.6019477e-05
5.9550257e-08
1.0060976e-07
2.5935371e-05
5.9325145e-08
9.8445312e-08
2.585285e-05
5.9090513e-08
9.6345415e-08
2.5771868e-05
5.8845477e-08
9.430694e-08
2.5692384e-05
5.858898e-08
9.2326721e-08
2.5614357e-05
5.8319807e-08
9.0401424e-08
2.5537753e-05
5.803706e-08
8.8527325e-08
2.5462539e-05
5.7741646e-08
8.6700209e-08
2.5388689e-05
5.7438401e-08
8.4915165e-08
2.5316184e-05
5.7141441e-08
8.3166646e-08
2.5245017e-05
5.6882582e-08
8.1449663e-08
2.51752e-05
5.6726021e-08
7.9765811e-08
2.510677e-05
5.6787896e-08
7.8149178e-08
2.5039729e-05
5.7251598e-08
7.6780975e-08
2.4973573e-05
5.8330934e-08
7.6510226e-08
2.4906079e-05
5.9989479e-08
7.9732174e-08
6.0715022e-08
1.1287824e-07
0.00010503672
9.078937e-07
6.5005614e-06
9.9140653e-05
1.6524914e-06
6.6166801e-06
9.3788329e-05
2.0825241e-06
6.1717217e-06
8.8708526e-05
2.2549373e-06
5.91053e-06
8.3909682e-05
2.278404e-06
5.6151748e-06
7.9437109e-05
2.2074821e-06
5.2497564e-06
7.5296201e-05
2.0645348e-06
4.8553893e-06
7.1474034e-05
1.8722542e-06
4.4605969e-06
6.7955013e-05
1.6547667e-06
4.0771269e-06
6.4723621e-05
1.4313505e-06
3.7107669e-06
6.1764423e-05
1.2154297e-06
3.3655007e-06
5.9062056e-05
1.015864e-06
3.0438911e-06
5.6601108e-05
8.3782742e-07
2.7471548e-06
5.4365944e-05
6.8344646e-07
2.475497e-06
5.2340648e-05
5.5258528e-07
2.2284384e-06
5.0509125e-05
4.4366548e-07
2.0050361e-06
4.8855299e-05
3.5433456e-07
1.8040352e-06
4.7363353e-05
2.8193588e-07
1.6239821e-06
4.6017963e-05
2.2381345e-07
1.4633127e-06
4.4804503e-05
1.7749383e-07
1.3204181e-06
4.3709199e-05
1.4078089e-07
1.1936935e-06
4.2719248e-05
1.1179155e-07
1.081575e-06
4.1822875e-05
8.8954545e-08
9.8256582e-07
4.1009364e-05
7.0988013e-08
8.9525472e-07
4.0269054e-05
5.6861851e-08
8.1832382e-07
3.9593306e-05
4.5719134e-08
7.5058474e-07
3.8974405e-05
3.6977844e-08
6.9093436e-07
3.8405585e-05
3.0067387e-08
6.3838632e-07
3.7880869e-05
2.4650884e-08
5.920424e-07
3.7395029e-05
2.0439985e-08
5.5110606e-07
3.6943514e-05
1.7190333e-08
5.1487717e-07
3.6522366e-05
1.471675e-08
4.8273956e-07
3.6128148e-05
1.2874779e-08
4.5415388e-07
3.5757883e-05
1.1549877e-08
4.2864944e-07
3.5408991e-05
1.0650768e-08
4.0581708e-07
3.5079238e-05
1.0103631e-08
3.853023e-07
3.4766689e-05
9.8483057e-09
3.6679881e-07
3.4469668e-05
9.835137e-09
3.5004237e-07
3.4186716e-05
1.0022927e-08
3.3480553e-07
3.3916567e-05
1.0377036e-08
3.2089287e-07
3.3658116e-05
1.0868081e-08
3.0813658e-07
3.3410395e-05
1.1470988e-08
2.9639283e-07
3.3172556e-05
1.2164235e-08
2.8553826e-07
3.2943852e-05
1.2929312e-08
2.7546717e-07
3.2723625e-05
1.3750179e-08
2.6608893e-07
3.2511286e-05
1.4613117e-08
2.5732573e-07
3.2306316e-05
1.5506254e-08
2.4911068e-07
3.2108246e-05
1.6419596e-08
2.4138619e-07
3.1916658e-05
1.734463e-08
2.3410267e-07
3.1731171e-05
1.8274327e-08
2.272171e-07
3.1551444e-05
1.920316e-08
2.2069213e-07
3.1377162e-05
2.0127737e-08
2.1449509e-07
3.1208038e-05
2.1048642e-08
2.0859681e-07
3.10438e-05
2.1972778e-08
2.0297055e-07
3.0884232e-05
2.2827837e-08
1.9760739e-07
3.0729103e-05
2.3662953e-08
1.9248227e-07
3.05782e-05
2.4489993e-08
1.875738e-07
3.0431331e-05
2.5296269e-08
1.8286762e-07
3.0288318e-05
2.6077975e-08
1.7835076e-07
3.0148994e-05
2.6834327e-08
1.7401108e-07
3.0013202e-05
2.7564702e-08
1.6983752e-07
2.9880797e-05
2.826898e-08
1.6582022e-07
2.975164e-05
2.8947416e-08
1.6195012e-07
2.96256e-05
2.9600763e-08
1.5821894e-07
2.9502557e-05
3.022859e-08
1.5461917e-07
2.9382396e-05
3.0823602e-08
1.5114465e-07
2.9265007e-05
3.1393135e-08
1.4778876e-07
2.9150287e-05
3.19396e-08
1.4454537e-07
2.9038137e-05
3.2461893e-08
1.41409e-07
2.8928465e-05
3.2960072e-08
1.3837462e-07
2.8821181e-05
3.3434739e-08
1.3543753e-07
2.8716203e-05
3.3886361e-08
1.3259331e-07
2.8613449e-05
3.4315552e-08
1.2983786e-07
2.8512845e-05
3.4722868e-08
1.2716736e-07
2.8414317e-05
3.5108943e-08
1.2457816e-07
2.8317797e-05
3.5474416e-08
1.2206679e-07
2.8223219e-05
3.5819871e-08
1.1963006e-07
2.813052e-05
3.6145887e-08
1.172649e-07
2.803964e-05
3.6453042e-08
1.149684e-07
2.7950522e-05
3.6741871e-08
1.1273775e-07
2.7863111e-05
3.7012819e-08
1.1057027e-07
2.7777354e-05
3.7266265e-08
1.0846342e-07
2.7693204e-05
3.7502468e-08
1.0641472e-07
2.761061e-05
3.7721607e-08
1.0442174e-07
2.752953e-05
3.7923545e-08
1.0248201e-07
2.7449919e-05
3.810798e-08
1.0059308e-07
2.7371738e-05
3.8274301e-08
9.875232e-08
2.7294949e-05
3.8421557e-08
9.6956917e-08
2.7219516e-05
3.854872e-08
9.5203618e-08
2.714541e-05
3.8655103e-08
9.3488614e-08
2.7072603e-05
3.8741149e-08
9.1806955e-08
2.7001079e-05
3.8810309e-08
9.0152327e-08
2.6930832e-05
3.8872155e-08
8.8516564e-08
2.6861876e-05
3.8947397e-08
8.6890551e-08
2.679426e-05
3.9073524e-08
8.5269194e-08
2.6728065e-05
3.9306951e-08
8.3675955e-08
2.6663337e-05
3.970835e-08
8.2271157e-08
2.659956e-05
4.0272001e-08
8.1836162e-08
2.6534295e-05
4.0698027e-08
8.4555722e-08
3.9620825e-08
1.1507132e-07
0.00010494757
5.6811079e-07
6.5033076e-06
9.8925416e-05
1.0462983e-06
6.6283517e-06
9.3480449e-05
1.3439845e-06
6.1835065e-06
8.8341777e-05
1.4751324e-06
5.9184763e-06
8.3502084e-05
1.4993911e-06
5.6187065e-06
7.9004057e-05
1.4572411e-06
5.2482679e-06
7.4853978e-05
1.3667382e-06
4.8478757e-06
7.1037378e-05
1.2423973e-06
4.4464569e-06
6.7536063e-05
1.0997693e-06
4.0563128e-06
6.4331998e-05
9.519236e-07
3.6834909e-06
6.1407318e-05
8.0805756e-07
3.3320524e-06
5.8744339e-05
6.7422201e-07
3.0046209e-06
5.6325632e-05
5.5404398e-07
2.7024907e-06
5.4133973e-05
4.4916748e-07
2.4259383e-06
5.2152298e-05
3.5972398e-07
2.174536e-06
5.0363747e-05
2.848451e-07
1.9473718e-06
4.875178e-05
2.2310003e-07
1.7432015e-06
4.7300339e-05
1.7281164e-07
1.5605647e-06
4.5994012e-05
1.3226573e-07
1.3978748e-06
4.4818177e-05
9.9839999e-08
1.2534891e-06
4.3759121e-05
7.4075593e-08
1.1257614e-06
4.2804123e-05
5.3707619e-08
1.0130814e-06
4.1941503e-05
3.7671219e-08
9.1390376e-07
4.1160627e-05
2.5096492e-08
8.2676732e-07
4.0451891e-05
1.529419e-08
7.5030387e-07
3.980679e-05
7.5281698e-09
6.8329174e-07
3.9217543e-05
1.6727634e-09
6.2455204e-07
3.8677513e-05
-3.0330978e-09
5.7313084e-07
3.8180739e-05
-6.6486781e-09
5.2807351e-07
3.7722004e-05
-9.359475e-09
4.885345e-07
3.7296777e-05
-1.1371783e-08
4.5378926e-07
3.6901112e-05
-1.2818184e-08
4.2319913e-07
3.6531588e-05
-1.3805262e-08
3.962048e-07
3.6185236e-05
-1.441744e-08
3.7231876e-07
3.5859491e-05
-1.4721892e-08
3.5111776e-07
3.5552132e-05
-1.4772626e-08
3.3223578e-07
3.5261237e-05
-1.4613914e-08
3.1535729e-07
3.4985143e-05
-1.42822e-08
3.0021091e-07
3.472241e-05
-1.3807717e-08
2.8656376e-07
3.4471787e-05
-1.3215861e-08
2.7421631e-07
3.4232185e-05
-1.2528169e-08
2.6299769e-07
3.4002657e-05
-1.1762751e-08
2.5276173e-07
3.3782373e-05
-1.0935221e-08
2.4338338e-07
3.3570606e-05
-1.0058763e-08
2.3475558e-07
3.3366714e-05
-9.1447445e-09
2.2678674e-07
3.3170132e-05
-8.2027972e-09
2.1939834e-07
3.2980356e-05
-7.2412012e-09
2.1252297e-07
3.279694e-05
-6.2668564e-09
2.0610281e-07
3.2619482e-05
-5.2855614e-09
2.0008783e-07
3.2447623e-05
-4.3018206e-09
1.9443477e-07
3.228104e-05
-3.3190417e-09
1.8910587e-07
3.2119438e-05
-2.3383079e-09
1.8406734e-07
3.1962554e-05
-1.3529943e-09
1.7928648e-07
3.1810075e-05
-2.7631294e-10
1.7472765e-07
3.1661878e-05
5.8584958e-10
1.7043908e-07
3.1517732e-05
1.435646e-09
1.6637296e-07
3.1377429e-05
2.3038467e-09
1.624896e-07
3.1240792e-05
3.1586628e-09
1.5877487e-07
3.1107656e-05
3.9969853e-09
1.5521716e-07
3.0977867e-05
4.8171684e-09
1.5180547e-07
3.0851284e-05
5.6179463e-09
1.4852965e-07
3.0727774e-05
6.3990498e-09
1.4538078e-07
3.0607209e-05
7.1609349e-09
1.4235053e-07
3.0489473e-05
7.9059349e-09
1.394312e-07
3.037445e-05
8.6357558e-09
1.3661578e-07
3.0262049e-05
9.3206559e-09
1.3390395e-07
3.0152163e-05
9.9938328e-09
1.3128568e-07
3.0044697e-05
1.0650382e-08
1.2875514e-07
2.9939564e-05
1.1286732e-08
1.2630829e-07
2.983668e-05
1.1903203e-08
1.2394091e-07
2.9735965e-05
1.2500179e-08
1.2164884e-07
2.9637345e-05
1.3077902e-08
1.1942843e-07
2.9540748e-05
1.3636718e-08
1.1727618e-07
2.9446105e-05
1.4176994e-08
1.1518882e-07
2.9353352e-05
1.4699145e-08
1.1316338e-07
2.9262425e-05
1.520348e-08
1.1119705e-07
2.9173268e-05
1.5690441e-08
1.0928708e-07
2.9085822e-05
1.6160364e-08
1.0743108e-07
2.9000035e-05
1.6613568e-08
1.0562663e-07
2.8915855e-05
1.7050402e-08
1.0387152e-07
2.8833233e-05
1.747114e-08
1.0216359e-07
2.8752123e-05
1.7875977e-08
1.0050078e-07
2.8672479e-05
1.8265087e-08
9.8881064e-08
2.8594259e-05
1.8638553e-08
9.7302467e-08
2.8517424e-05
1.8996226e-08
9.5762934e-08
2.8441934e-05
1.9337804e-08
9.4260356e-08
2.8367753e-05
1.9662822e-08
9.2792358e-08
2.8294848e-05
1.9970496e-08
9.1356269e-08
2.8223187e-05
2.0260008e-08
8.9948854e-08
2.8152746e-05
2.053071e-08
8.856594e-08
2.8083503e-05
2.078259e-08
8.7201823e-08
2.8015447e-05
2.1017525e-08
8.584868e-08
2.7948582e-05
2.1240726e-08
8.4495841e-08
2.7882937e-05
2.1462716e-08
8.3129535e-08
2.7818574e-05
2.1699971e-08
8.1736519e-08
2.7755588e-05
2.1969258e-08
8.0324366e-08
2.7694014e-05
2.2266162e-08
7.9016078e-08
2.7633299e-05
2.2506279e-08
7.8480644e-08
2.7571004e-05
2.2393406e-08
8.0599461e-08
2.099311e-08
1.0779949e-07
0.00010489986
2.7443375e-07
6.5049155e-06
9.8802772e-05
5.0716633e-07
6.6362236e-06
9.329591e-05
6.5854976e-07
6.1922972e-06
8.8116302e-05
7.2902546e-07
5.9257148e-06