/*--------------------------------*- C++ -*----------------------------------*\
  =========                 |
  \\      /  F ield         | OpenFOAM: The Open Source CFD Toolbox
   \\    /   O peration     | Website:  https://openfoam.org
    \\  /    A nd           | Version:  7
     \\/     M anipulation  |
\*---------------------------------------------------------------------------*/
FoamFile
{
    version     2.0;
    format      ascii;
    class       surfaceScalarField;
    location    "1800/water";
    object      phi;
}
// * * * * * * * * * * * * * * * * * * * * * * * * * * * * * * * * * * * * * //

dimensions      [1 0 -1 0 0 0 0];

internalField   nonuniform List<scalar> 
156660
(
9.9057239e-05
6.0010402e-06
6.0528092e-06
8.6847498e-05
6.0555113e-06
6.1542307e-06
7.5687891e-05
5.5111362e-06
5.6484701e-06
6.5441704e-05
5.0404181e-06
5.2057689e-06
5.6267661e-05
4.4956436e-06
4.6783991e-06
4.8318019e-05
3.8797648e-06
4.0698777e-06
4.1624776e-05
3.2524448e-06
3.4407982e-06
3.6124897e-05
2.660462e-06
2.839417e-06
3.1692235e-05
2.1345126e-06
2.2981489e-06
2.8162841e-05
1.6926975e-06
1.8366964e-06
2.5361437e-05
1.3399934e-06
1.4614113e-06
2.3124664e-05
1.0698476e-06
1.1669256e-06
2.1315127e-05
8.6875417e-07
9.4078226e-07
1.9825714e-05
7.2110064e-07
7.6831273e-07
1.8577278e-05
6.1248243e-07
6.3595305e-07
1.7513255e-05
5.3125219e-07
5.3277147e-07
1.6593744e-05
4.6879727e-07
4.5071348e-07
1.5790433e-05
4.1913718e-07
3.8417386e-07
1.5082784e-05
3.782907e-07
3.2935849e-07
1.4455417e-05
3.4367128e-07
2.8369564e-07
1.3896409e-05
3.136141e-07
2.4539331e-07
1.339622e-05
2.8704447e-07
2.1314451e-07
1.2947015e-05
2.6326032e-07
1.8594512e-07
1.2542237e-05
2.4179365e-07
1.629846e-07
1.2176318e-05
2.2232209e-07
1.4359689e-07
1.1844484e-05
2.0461481e-07
1.272188e-07
1.1542609e-05
1.8849495e-07
1.1337975e-07
1.1267116e-05
1.7381573e-07
1.0167795e-07
1.1014892e-05
1.6046269e-07
9.1760859e-08
1.0783252e-05
1.4833967e-07
8.3300594e-08
1.0569851e-05
1.3734903e-07
7.6052117e-08
1.0372614e-05
1.2738861e-07
6.9848324e-08
1.0189731e-05
1.1836807e-07
6.4514848e-08
1.001963e-05
1.1020447e-07
5.9896643e-08
9.8609388e-06
1.028192e-07
5.5871665e-08
9.7124594e-06
9.6137939e-08
5.2341357e-08
9.5731439e-06
9.0091167e-08
4.9224332e-08
9.4420759e-06
8.4614461e-08
4.6453568e-08
9.3184531e-06
7.964869e-08
4.3974108e-08
9.2015723e-06
7.5139716e-08
4.1741071e-08
9.0908166e-06
7.1038159e-08
3.9717534e-08
8.9856432e-06
6.7301134e-08
3.7872318e-08
8.8855707e-06
6.3894237e-08
3.6178159e-08
8.7901757e-06
6.0780125e-08
3.461493e-08
8.6990829e-06
5.7926149e-08
3.3166642e-08
8.611959e-06
5.5303731e-08
3.1820127e-08
8.5285072e-06
5.2887434e-08
3.0564431e-08
8.4484618e-06
5.0655072e-08
2.9390275e-08
8.3715848e-06
4.858702e-08
2.8290003e-08
8.2976614e-06
4.6666178e-08
2.725722e-08
8.2264975e-06
4.4877489e-08
2.6286415e-08
8.1579202e-06
4.3208782e-08
2.5368524e-08
8.0917731e-06
4.164904e-08
2.449802e-08
8.0279108e-06
4.0186996e-08
2.3675369e-08
7.9662006e-06
3.8812662e-08
2.2897526e-08
7.9065219e-06
3.7518393e-08
2.2160273e-08
7.8487639e-06
3.629787e-08
2.1460183e-08
7.7928241e-06
3.5145145e-08
2.0794613e-08
7.7386083e-06
3.4054655e-08
2.0161163e-08
7.6860293e-06
3.3021366e-08
1.9557681e-08
7.6350062e-06
3.2040813e-08
1.8982254e-08
7.5854641e-06
3.1109054e-08
1.8433066e-08
7.537333e-06
3.0222602e-08
1.79085e-08
7.4905478e-06
2.9378232e-08
1.7407012e-08
7.4450476e-06
2.8573025e-08
1.6927207e-08
7.4007756e-06
2.7804245e-08
1.6467783e-08
7.3576783e-06
2.7069583e-08
1.6027634e-08
7.3157057e-06
2.6367056e-08
1.5605629e-08
7.2748103e-06
2.5694666e-08
1.5200671e-08
7.2349479e-06
2.5050565e-08
1.4811824e-08
7.1960766e-06
2.4433073e-08
1.4438171e-08
7.158157e-06
2.3840691e-08
1.4078914e-08
7.1211518e-06
2.3271936e-08
1.3733293e-08
7.0850258e-06
2.2725476e-08
1.3400517e-08
7.0497456e-06
2.2200203e-08
1.3079943e-08
7.0152798e-06
2.169495e-08
1.2770913e-08
6.9815985e-06
2.1208572e-08
1.2472748e-08
6.9486733e-06
2.0740249e-08
1.2184919e-08
6.9164775e-06
2.0288974e-08
1.1906815e-08
6.8849857e-06
1.9853955e-08
1.1637815e-08
6.8541739e-06
1.9434356e-08
1.1377435e-08
6.8240193e-06
1.9029428e-08
1.1125128e-08
6.7945006e-06
1.8638473e-08
1.0880255e-08
6.7655975e-06
1.8260767e-08
1.0642286e-08
6.7372912e-06
1.7895545e-08
1.0410753e-08
6.709564e-06
1.7542068e-08
1.0185111e-08
6.6823995e-06
1.7199621e-08
9.9648753e-09
6.6557824e-06
1.6867283e-08
9.749802e-09
6.6296983e-06
1.6544165e-08
9.5399835e-09
6.6041331e-06
1.6229268e-08
9.3359607e-09
6.5790714e-06
1.5921938e-08
9.1396752e-09
6.554494e-06
1.5622316e-08
8.9551121e-09
6.5303708e-06
1.5332571e-08
8.7906746e-09
6.5066467e-06
1.5060468e-08
8.6636034e-09
6.4832094e-06
1.482783e-08
8.6095186e-09
6.4598103e-06
1.4693086e-08
8.7060279e-09
6.4358387e-06
1.4826429e-08
9.1451366e-09
6.4096303e-06
1.5741771e-08
1.0466755e-08
6.3782855e-06
1.8026573e-08
1.3318212e-08
3.2300211e-08
2.7923546e-08
0.00010646494
4.1872386e-06
6.4599816e-06
0.0001002019
5.695418e-06
6.6231353e-06
9.3659588e-05
5.7790389e-06
6.2744098e-06
8.7011589e-05
5.6514782e-06
6.0369387e-06
8.0422927e-05
5.366912e-06
5.7173941e-06
7.4094022e-05
4.9022832e-06
5.3063862e-06
6.8167026e-05
4.3278136e-06
4.8516272e-06
6.2722565e-05
3.717891e-06
4.387032e-06
5.7799049e-05
3.1243144e-06
3.9337145e-06
5.3403345e-05
2.5820689e-06
3.5063329e-06
4.9517402e-05
2.1121062e-06
3.1138299e-06
4.6105482e-05
1.7220197e-06
2.7597474e-06
4.3121558e-05
1.4089355e-06
2.4437429e-06
4.0515558e-05
1.1637552e-06
2.163346e-06
3.8237948e-05
9.7485848e-07
1.9152336e-06
3.6242683e-05
8.3055974e-07
1.6959573e-06
3.4488759e-05
7.2043696e-07
1.5022849e-06
3.2940716e-05
6.3586294e-07
1.3313172e-06
3.1568463e-05
5.7005005e-07
1.1804931e-06
3.0346733e-05
5.1784899e-07
1.0475522e-06
2.9254398e-05
4.7545953e-07
9.3049031e-07
2.8273782e-05
4.401396e-07
8.2752024e-07
2.7390054e-05
4.0994893e-07
7.3704009e-07
2.6590699e-05
3.8353953e-07
6.5760855e-07
2.5865102e-05
3.5998888e-07
5.8793071e-07
2.5204197e-05
3.386763e-07
5.268426e-07
2.4600205e-05
3.1918358e-07
4.733035e-07
2.4046429e-05
3.012019e-07
4.2639017e-07
2.3537073e-05
2.8455208e-07
3.8526714e-07
2.3067119e-05
2.6911098e-07
3.491824e-07
2.2632208e-05
2.5478167e-07
3.1747784e-07
2.2228528e-05
2.414738e-07
2.895953e-07
2.1852744e-05
2.2911074e-07
2.6504122e-07
2.1501947e-05
2.1762896e-07
2.4337257e-07
2.1173591e-05
2.0696951e-07
2.2420572e-07
2.0865444e-05
1.9707565e-07
2.0720864e-07
2.0575549e-05
1.8789253e-07
1.9209398e-07
2.0302183e-05
1.7936723e-07
1.7861345e-07
2.0043829e-05
1.7144909e-07
1.6655325e-07
1.979915e-05
1.640898e-07
1.5572944e-07
1.956696e-05
1.5724379e-07
1.4598404e-07
1.934621e-05
1.5086893e-07
1.3718218e-07
1.9135969e-05
1.4492652e-07
1.2920884e-07
1.8935407e-05
1.3937902e-07
1.2196307e-07
1.8743783e-05
1.3419232e-07
1.153576e-07
1.8560435e-05
1.293351e-07
1.0931725e-07
1.8384766e-05
1.247791e-07
1.0377716e-07
1.8216241e-05
1.2049851e-07
9.8681273e-08
1.8054377e-05
1.1647012e-07
9.3981313e-08
1.7898734e-05
1.1267292e-07
8.9635396e-08
1.7748917e-05
1.0908824e-07
8.5607032e-08
1.7604563e-05
1.0570006e-07
8.1862407e-08
1.7465345e-05
1.0249338e-07
7.8373265e-08
1.7330962e-05
9.9452988e-08
7.5117002e-08
1.7201138e-05
9.6564389e-08
7.207271e-08
1.7075619e-05
9.3816645e-08
6.9221159e-08
1.695417e-05
9.1201104e-08
6.6545099e-08
1.6836577e-05
8.8709109e-08
6.4029555e-08
1.6722638e-05
8.6331951e-08
6.1661055e-08
1.661217e-05
8.4061786e-08
5.9427697e-08
1.6505001e-05
8.1891536e-08
5.7318814e-08
1.640097e-05
7.9814944e-08
5.5324813e-08
1.6299929e-05
7.7826201e-08
5.3437144e-08
1.620174e-05
7.5919901e-08
5.1647897e-08
1.6106272e-05
7.4091039e-08
4.9950104e-08
1.6013404e-05
7.2334977e-08
4.8337354e-08
1.5923022e-05
7.0647733e-08
4.6803853e-08
1.5835019e-05
6.9025732e-08
4.5344255e-08
1.5749294e-05
6.7465537e-08
4.3953688e-08
1.5665753e-05
6.5963773e-08
4.2627708e-08
1.5584307e-05
6.4517364e-08
4.1362167e-08
1.5504871e-05
6.312343e-08
4.0153344e-08
1.5427365e-05
6.1779283e-08
3.8997797e-08
1.5351716e-05
6.0482539e-08
3.7892254e-08
1.5277852e-05
5.9230835e-08
3.6833833e-08
1.5205705e-05
5.8021972e-08
3.5819726e-08
1.5135212e-05
5.6854015e-08
3.4847392e-08
1.5066313e-05
5.5724997e-08
3.3914339e-08
1.499895e-05
5.4633131e-08
3.3018384e-08
1.493307e-05
5.3576727e-08
3.2157437e-08
1.4868621e-05
5.2554189e-08
3.1329425e-08
1.4805554e-05
5.1563901e-08
3.0532463e-08
1.4743823e-05
5.0604475e-08
2.9764705e-08
1.4683386e-05
4.9674271e-08
2.9024367e-08
1.4624199e-05
4.8771798e-08
2.8309862e-08
1.4566226e-05
4.7895451e-08
2.7619566e-08
1.4509431e-05
4.7043488e-08
2.6951972e-08
1.4453778e-05
4.6214114e-08
2.6305769e-08
1.4399237e-05
4.5405384e-08
2.5679892e-08
1.4345777e-05
4.4615673e-08
2.507376e-08
1.4293367e-05
4.3844247e-08
2.4487678e-08
1.4241972e-05
4.3092851e-08
2.3923756e-08
1.4191548e-05
4.2369923e-08
2.338714e-08
1.4142019e-05
4.1699328e-08
2.2889637e-08
1.4093249e-05
4.1141653e-08
2.2456626e-08
1.4044951e-05
4.0844674e-08
2.2146577e-08
1.3996485e-05
4.1169199e-08
2.2123049e-08
1.3946229e-05
4.3012294e-08
2.2985383e-08
1.389015e-05
4.8540263e-08
2.5565788e-08
6.3281579e-08
5.0000833e-08
0.00010603565
2.7876425e-06
6.4750379e-06
0.00010074799
4.4145413e-06
6.5685292e-06
9.5493515e-05
4.8594028e-06
6.1741158e-06
9.0256432e-05
4.930369e-06
5.9581921e-06
8.5101366e-05
4.8311767e-06
5.6908011e-06
8.0102875e-05
4.5561761e-06
5.3445981e-06
7.5322251e-05
4.1469521e-06
4.9614853e-06
7.0803266e-05
3.6678925e-06
4.5689837e-06
6.6576264e-05
3.1701903e-06
4.1811255e-06
6.2660725e-05
2.690011e-06
3.8075976e-06
5.9065443e-05
2.2519318e-06
3.4554566e-06
5.5788936e-05
1.8697304e-06
3.1287958e-06
5.2820978e-05
1.5477473e-06
2.8291458e-06
5.014479e-05
1.2836302e-06
2.556314e-06
4.7739304e-05
1.07123e-06
2.3091141e-06
4.5581183e-05
9.0281504e-07
2.0858661e-06
4.3646423e-05
7.704878e-07
1.884709e-06
4.1911533e-05
6.6697376e-07
1.7037793e-06
4.0354306e-05
5.8598197e-07
1.541295e-06
3.8954268e-05
5.2230224e-07
1.3955849e-06
3.769288e-05
4.7175607e-07
1.265091e-06
3.6553576e-05
4.3107984e-07
1.1483634e-06
3.552169e-05
3.977821e-07
1.0440533e-06
3.4584322e-05
3.6999884e-07
9.509083e-07
3.3730181e-05
3.4635988e-07
8.6777018e-07
3.2949411e-05
3.2587763e-07
7.9356872e-07
3.2233419e-05
3.0784047e-07
7.2733487e-07
3.1574711e-05
2.9172985e-07
6.6818106e-07
3.0966769e-05
2.7719265e-07
6.153013e-07
3.0403928e-05
2.6398099e-07
5.679702e-07
2.9881258e-05
2.5190846e-07
5.2554314e-07
2.9394455e-05
2.4082714e-07
4.8745001e-07
2.8939761e-05
2.3062161e-07
4.5318326e-07
2.8513895e-05
2.2120154e-07
4.2229383e-07
2.8113985e-05
2.1249193e-07
3.9438673e-07
2.7737518e-05
2.0442796e-07
3.6911487e-07
2.7382285e-05
1.969519e-07
3.4617384e-07
2.7046344e-05
1.9001176e-07
3.2529678e-07
2.6727982e-05
1.8355989e-07
3.0625044e-07
2.6425689e-05
1.7755272e-07
2.8883087e-07
2.6138123e-05
1.7195004e-07
2.7285986e-07
2.5864094e-05
1.6671516e-07
2.5818184e-07
2.5602546e-05
1.6181453e-07
2.4466094e-07
2.535253e-05
1.5721707e-07
2.3217765e-07
2.51132e-05
1.528944e-07
2.2062725e-07
2.4883797e-05
1.4882096e-07
2.0991774e-07
2.4663634e-05
1.4497364e-07
1.9996812e-07
2.4452094e-05
1.4133184e-07
1.9070706e-07
2.4248615e-05
1.3787694e-07
1.8207155e-07
2.405269e-05
1.3459268e-07
1.740057e-07
2.3863854e-05
1.3146462e-07
1.6645992e-07
2.3681684e-05
1.2848059e-07
1.5938923e-07
2.3505794e-05
1.2562921e-07
1.527541e-07
2.3335829e-05
1.2289868e-07
1.4651968e-07
2.3171462e-05
1.2027634e-07
1.406546e-07
2.3012394e-05
1.1775473e-07
1.3513017e-07
2.2858345e-05
1.153297e-07
1.2992041e-07
2.2709057e-05
1.1299537e-07
1.2500175e-07
2.2564291e-05
1.1074518e-07
1.2035291e-07
2.2423824e-05
1.0857347e-07
1.1595459e-07
2.2287451e-05
1.0647552e-07
1.1178924e-07
2.2154978e-05
1.0444702e-07
1.0784077e-07
2.2026226e-05
1.0248421e-07
1.0409459e-07
2.1901025e-05
1.0058352e-07
1.0053715e-07
2.1779218e-05
9.8741549e-08
9.7156142e-08
2.1660658e-05
9.6954929e-08
9.3940282e-08
2.1545205e-05
9.5221275e-08
9.0879058e-08
2.1432729e-05
9.3538825e-08
8.7962814e-08
2.1323107e-05
9.1905309e-08
8.51826e-08
2.1216222e-05
9.0318501e-08
8.2530181e-08
2.1111965e-05
8.8776386e-08
7.9997889e-08
2.1010233e-05
8.7277098e-08
7.7578631e-08
2.0910927e-05
8.5818942e-08
7.5265845e-08
2.0813956e-05
8.4400288e-08
7.305341e-08
2.0719232e-05
8.3019705e-08
7.0935655e-08
2.0626671e-05
8.1675637e-08
6.890721e-08
2.0536195e-05
8.0366813e-08
6.6963135e-08
2.0447729e-05
7.9091946e-08
6.5098756e-08
2.0361203e-05
7.7849802e-08
6.3309742e-08
2.0276548e-05
7.6639216e-08
6.1592032e-08
2.0193702e-05
7.5458981e-08
5.9941767e-08
2.0112602e-05
7.430795e-08
5.8355245e-08
2.0033193e-05
7.3184903e-08
5.6829067e-08
1.9955419e-05
7.2088616e-08
5.5359972e-08
1.9879228e-05
7.1017631e-08
5.3944832e-08
1.9804572e-05
6.9970433e-08
5.258075e-08
1.9731406e-05
6.8945239e-08
5.1264834e-08
1.9659685e-05
6.7940106e-08
4.9994376e-08
1.9589371e-05
6.6953011e-08
4.8767031e-08
1.9520423e-05
6.5982371e-08
4.7580555e-08
1.9452807e-05
6.5028019e-08
4.6433118e-08
1.9386482e-05
6.4094106e-08
4.5323742e-08
1.9321404e-05
6.3194677e-08
4.4253057e-08
1.9257511e-05
6.2366345e-08
4.3225222e-08
1.9194705e-05
6.1695187e-08
4.2253155e-08
1.9132798e-05
6.137409e-08
4.1377399e-08
1.9071394e-05
6.182242e-08
4.0750678e-08
1.9009424e-05
6.3924714e-08
4.1057609e-08
1.8944661e-05
6.9304668e-08
4.3998846e-08
7.9170911e-08
7.4661523e-08
0.0001054937
1.9169871e-06
6.4880407e-06
0.00010005365
3.2729596e-06
6.5816334e-06
9.4926077e-05
3.8288995e-06
6.1580776e-06
8.9946373e-05
3.9838109e-06
5.9262629e-06
8.5163276e-05
3.9595077e-06
5.6547657e-06
8.0619137e-05
3.7899369e-06
5.3103784e-06
7.6329462e-05
3.5015547e-06
4.9350725e-06
7.230016e-05
3.1412013e-06
4.5559928e-06
6.8534206e-05
2.7514802e-06
4.1846641e-06
6.5032983e-05
2.3633493e-06
3.8278853e-06
6.1795789e-05
1.9984144e-06
3.490711e-06
5.8818843e-05
1.670376e-06
3.176301e-06
5.6094717e-05
1.3858295e-06
2.886043e-06
5.3612488e-05
1.1457945e-06
2.6200649e-06
5.1358373e-05
9.4764117e-07
2.3777043e-06
4.9316593e-05
7.8676784e-07
2.1578272e-06
4.7470246e-05
6.5779542e-07
1.9590391e-06
4.5802069e-05
5.5532539e-07
1.7798252e-06
4.4295042e-05
4.7437114e-07
1.6186378e-06
4.293283e-05
4.1056668e-07
1.473948e-06
4.1700078e-05
3.6023236e-07
1.3442759e-06
4.0582591e-05
3.2035742e-07
1.2282094e-06
3.956742e-05
2.8853735e-07
1.1244154e-06
3.8642881e-05
2.6289066e-07
1.0316467e-06
3.7798527e-05
2.4196987e-07
9.4874399e-07
3.7025076e-05
2.2467706e-07
8.7465169e-07
3.6314324e-05
2.1018901e-07
8.0840411e-07
3.5659057e-05
1.9788604e-07
7.4911043e-07
3.5052961e-05
1.8731582e-07
6.9597283e-07
3.4490519e-05
1.7814869e-07
6.4827381e-07
3.3966922e-05
1.7013166e-07
6.0537438e-07
3.3477973e-05
1.6306728e-07
5.6670867e-07
3.3020016e-05
1.5680295e-07
5.317754e-07
3.2589865e-05
1.5122052e-07
5.001324e-07
3.218474e-05
1.462256e-07
4.7139136e-07
3.1802215e-05
1.4174072e-07
4.4521231e-07
3.1440168e-05
1.3770097e-07
4.2129807e-07
3.1096739e-05
1.3405094e-07
3.9938922e-07
3.0770297e-05
1.3074294e-07
3.7925953e-07
3.0459402e-05
1.2773518e-07
3.6071198e-07
3.0162787e-05
1.2499093e-07
3.4357481e-07
2.9879325e-05
1.2247783e-07
3.2769849e-07
2.960802e-05
1.2016732e-07
3.1295268e-07
2.934798e-05
1.180338e-07
2.9922352e-07
2.9098408e-05
1.1605462e-07
2.8641138e-07
2.885859e-05
1.142098e-07
2.7442905e-07
2.8627882e-05
1.124819e-07
2.6319997e-07
2.8405701e-05
1.1085561e-07
2.5265684e-07
2.819152e-05
1.093176e-07
2.4274024e-07
2.7984859e-05
1.0785649e-07
2.3339756e-07
2.7785279e-05
1.0646279e-07
2.2458212e-07
2.7592378e-05
1.0512872e-07
2.1625214e-07
2.740579e-05
1.0384738e-07
2.0837032e-07
2.7225174e-05
1.0261118e-07
2.0090358e-07
2.705022e-05
1.0140747e-07
1.9382257e-07
2.6880641e-05
1.0023385e-07
1.8710038e-07
2.6716166e-05
9.9092353e-08
1.8071223e-07
2.6556546e-05
9.7980027e-08
1.7463556e-07
2.6401548e-05
9.6892515e-08
1.6885013e-07
2.6250957e-05
9.5827066e-08
1.6333742e-07
2.610457e-05
9.4781687e-08
1.5808043e-07
2.5962199e-05
9.3754775e-08
1.5306363e-07
2.5823666e-05
9.2744879e-08
1.4827261e-07
2.5688804e-05
9.1751021e-08
1.4369412e-07
2.5557458e-05
9.0771767e-08
1.3931598e-07
2.5429481e-05
8.980518e-08
1.3512691e-07
2.5304734e-05
8.8851451e-08
1.3111644e-07
2.5183087e-05
8.7911243e-08
1.2727467e-07
2.5064416e-05
8.6983925e-08
1.2359242e-07
2.4948604e-05
8.6068904e-08
1.2006121e-07
2.4835542e-05
8.5165781e-08
1.16673e-07
2.4725124e-05
8.4274331e-08
1.1342046e-07
2.4617252e-05
8.3394279e-08
1.1029657e-07
2.4511832e-05
8.2525472e-08
1.0729482e-07
2.4408775e-05
8.1667738e-08
1.0440899e-07
2.4307997e-05
8.0820979e-08
1.0163344e-07
2.4209416e-05
7.9984985e-08
9.8962645e-08
2.4112956e-05
7.9159715e-08
9.6391522e-08
2.4018546e-05
7.8345007e-08
9.3915283e-08
2.3926115e-05
7.754066e-08
9.1529295e-08
2.3835598e-05
7.6746531e-08
8.9229258e-08
2.3746933e-05
7.5962303e-08
8.7011034e-08
2.366006e-05
7.5187637e-08
8.4870712e-08
2.3574922e-05
7.4421993e-08
8.2804571e-08
2.3491466e-05
7.3664623e-08
8.0808914e-08
2.3409641e-05
7.2914602e-08
7.8880338e-08
2.33294e-05
7.2170669e-08
7.7015489e-08
2.3250698e-05
7.1431319e-08
7.5211017e-08
2.3173493e-05
7.0694876e-08
7.3463636e-08
2.3097745e-05
6.9960213e-08
7.1770088e-08
2.3023418e-05
6.9228001e-08
7.0127017e-08
2.2950477e-05
6.8503524e-08
6.85312e-08
2.2878889e-05
6.7802882e-08
6.6979714e-08
2.2808619e-05
6.7165064e-08
6.547157e-08
2.2739625e-05
6.667526e-08
6.401334e-08
2.267185e-05
6.650708e-08
6.2642317e-08
2.2605149e-05
6.6990739e-08
6.1532389e-08
2.2538888e-05
6.8686025e-08
6.1499915e-08
2.2471121e-05
7.2226942e-08
6.484511e-08
7.6722844e-08
9.8461333e-08
0.0001051979
1.3340885e-06
6.4961221e-06
9.9496561e-05
2.3731022e-06
6.6011947e-06
9.4262459e-05
2.9019223e-06
6.1610799e-06
8.9251186e-05
3.0856641e-06
5.9094196e-06
8.4493497e-05
3.0947347e-06
5.6224614e-06
8.0033635e-05
2.9846656e-06
5.2651341e-06
7.5876907e-05
2.7790155e-06
4.8792667e-06
7.2014635e-05
2.5106844e-06
4.4927895e-06
6.8436293e-05
2.2128728e-06
4.1169489e-06
6.5131387e-05
1.9107259e-06
3.7575292e-06
6.208941e-05
1.6217321e-06
3.4186596e-06
5.9299432e-05
1.3573878e-06
3.1029661e-06
5.6749589e-05
1.1240344e-06
2.8116386e-06
5.4426788e-05
9.2377947e-07
2.5448158e-06
5.2316754e-05
7.5572802e-07
2.3019466e-06
5.0404313e-05
6.1717855e-07
2.0820302e-06
4.8673788e-05
5.045435e-07
1.8837772e-06
4.7109414e-05
4.1397179e-07
1.7057274e-06
4.5695713e-05
3.4173648e-07
1.5463363e-06
4.4417792e-05
2.8445143e-07
1.4040359e-06
4.3261575e-05
2.3917114e-07
1.277278e-06
4.2213952e-05
2.0341502e-07
1.1645652e-06
4.1262871e-05
1.7514743e-07
1.0644719e-06
4.039737e-05
1.5273235e-07
9.75659e-07
3.9607583e-05
1.3487531e-07
8.9688147e-07
3.8884688e-05
1.2055568e-07
8.2701639e-07
3.8220848e-05
1.0901092e-07
7.6501856e-07
3.7609155e-05
9.9633835e-08
7.0994488e-07
3.7043542e-05
9.1977452e-08
6.6095087e-07
3.6518702e-05
8.5705844e-08
6.1728288e-07
3.6030009e-05
8.0552384e-08
5.7827308e-07
3.5573433e-05
7.630826e-08
5.4333414e-07
3.5145475e-05
7.2811252e-08
5.1195028e-07
3.4743091e-05
6.9934125e-08
4.8367022e-07
3.4363641e-05
6.7575459e-08
4.5810067e-07
3.4004828e-05
6.5652872e-08
4.3489995e-07
3.3664659e-05
6.4098605e-08
4.137721e-07
3.3341393e-05
6.2855916e-08
3.9446095e-07
3.3033513e-05
6.1877004e-08
3.7674528e-07
3.2739693e-05
6.1121094e-08
3.6043424e-07
3.2458768e-05
6.0553064e-08
3.453633e-07
3.2189712e-05
6.014266e-08
3.3139055e-07
3.1931622e-05
5.9863624e-08
3.1839373e-07
3.1683696e-05
5.9693121e-08
3.0626735e-07
3.1445219e-05
5.9611199e-08
2.9492012e-07
3.1215555e-05
5.9600617e-08
2.8427316e-07
3.0994132e-05
5.9646531e-08
2.7425808e-07
3.0780436e-05
5.9736165e-08
2.648154e-07
3.0574002e-05
5.9858707e-08
2.5589334e-07
3.0374407e-05
6.0004949e-08
2.4744664e-07
3.0181267e-05
6.0167647e-08
2.3943549e-07
2.9994229e-05
6.034126e-08
2.3182487e-07
2.9812971e-05
6.0521798e-08
2.2458372e-07
2.9637193e-05
6.0704454e-08
2.1768455e-07
2.9466629e-05
6.0867283e-08
2.1110456e-07
2.9301024e-05
6.1016995e-08
2.0482179e-07
2.914014e-05
6.1160877e-08
1.9881569e-07
2.8983756e-05
6.1294965e-08
1.9306839e-07
2.8831669e-05
6.1415456e-08
1.8756385e-07
2.8683688e-05
6.1520946e-08
1.8228762e-07
2.8539633e-05
6.1610568e-08
1.7722634e-07
2.8399336e-05
6.1683796e-08
1.7236781e-07
2.8262639e-05
6.1740491e-08
1.677009e-07
2.8129394e-05
6.1780678e-08
1.632152e-07
2.7999461e-05
6.1803888e-08
1.5890121e-07
2.7872709e-05
6.1807378e-08
1.5475035e-07
2.7749012e-05
6.1793602e-08
1.5075442e-07
2.7628253e-05
6.1764868e-08
1.4690559e-07
2.7510319e-05
6.1720996e-08
1.4319663e-07
2.7395105e-05
6.1662112e-08
1.3962085e-07
2.728251e-05
6.1588638e-08
1.3617202e-07
2.7172439e-05
6.1501057e-08
1.3284422e-07
2.7064802e-05
6.1399952e-08
1.2963193e-07
2.6959511e-05
6.1285933e-08
1.2652991e-07
2.6856486e-05
6.1159497e-08
1.2353326e-07
2.6755649e-05
6.1021275e-08
1.206373e-07
2.6656924e-05
6.0871846e-08
1.1783767e-07
2.6560242e-05
6.0711685e-08
1.1513014e-07
2.6465535e-05
6.0541394e-08
1.1251077e-07
2.6372738e-05
6.0361323e-08
1.0997577e-07
2.6281791e-05
6.0171955e-08
1.0752158e-07
2.6192636e-05
5.9973544e-08
1.0514471e-07
2.6105215e-05
5.9766313e-08
1.0284182e-07
2.6019477e-05
5.9550259e-08
1.0060972e-07
2.5935371e-05
5.9325155e-08
9.8445258e-08
2.585285e-05
5.9090494e-08
9.6345365e-08
2.5771868e-05
5.8845486e-08
9.4306944e-08
2.5692384e-05
5.8589015e-08
9.2326756e-08
2.5614357e-05
5.8319783e-08
9.040142e-08
2.5537753e-05
5.8037062e-08
8.8527338e-08
2.5462539e-05
5.7741624e-08
8.6700206e-08
2.5388689e-05
5.7438417e-08
8.4915157e-08
2.5316184e-05
5.7141417e-08
8.3166623e-08
2.5245017e-05
5.6882572e-08
8.1449642e-08
2.51752e-05
5.6726038e-08
7.9765806e-08
2.510677e-05
5.6787887e-08
7.814919e-08
2.5039729e-05
5.7251583e-08
7.6780986e-08
2.4973573e-05
5.8330914e-08
7.6510222e-08
2.4906079e-05
5.9989468e-08
7.9732161e-08
6.0714971e-08
1.1287824e-07
0.00010503672
9.0789372e-07
6.5005614e-06
9.9140653e-05
1.6524914e-06
6.6166802e-06
9.3788329e-05
2.0825242e-06
6.1717217e-06
8.8708526e-05
2.2549373e-06
5.91053e-06
8.3909682e-05
2.278404e-06
5.6151748e-06
7.9437109e-05
2.2074821e-06
5.2497565e-06
7.5296201e-05
2.0645348e-06
4.8553893e-06
7.1474034e-05
1.8722543e-06
4.4605969e-06
6.7955013e-05
1.6547667e-06
4.0771269e-06
6.4723621e-05
1.4313505e-06
3.7107669e-06
6.1764423e-05
1.2154298e-06
3.3655007e-06
5.9062056e-05
1.0158641e-06
3.0438911e-06
5.6601108e-05
8.3782746e-07
2.7471548e-06
5.4365944e-05
6.8344651e-07
2.475497e-06
5.2340648e-05
5.5258531e-07
2.2284383e-06
5.0509125e-05
4.4366551e-07
2.0050361e-06
4.8855299e-05
3.5433458e-07
1.8040352e-06
4.7363353e-05
2.8193593e-07
1.6239821e-06
4.6017963e-05
2.2381347e-07
1.4633127e-06
4.4804502e-05
1.7749382e-07
1.3204181e-06
4.3709199e-05
1.407809e-07
1.1936935e-06
4.2719248e-05
1.1179158e-07
1.081575e-06
4.1822875e-05
8.8954544e-08
9.8256584e-07
4.1009364e-05
7.0987994e-08
8.9525471e-07
4.0269054e-05
5.6861803e-08
8.1832382e-07
3.9593306e-05
4.5719107e-08
7.5058474e-07
3.8974405e-05
3.6977875e-08
6.9093437e-07
3.8405585e-05
3.0067392e-08
6.3838632e-07
3.7880869e-05
2.4650864e-08
5.9204239e-07
3.7395029e-05
2.0439962e-08
5.5110604e-07
3.6943514e-05
1.719027e-08
5.1487713e-07
3.6522366e-05
1.4716713e-08
4.8273956e-07
3.6128148e-05
1.287478e-08
4.541539e-07
3.5757883e-05
1.1549907e-08
4.2864943e-07
3.5408991e-05
1.0650772e-08
4.0581705e-07
3.5079238e-05
1.0103602e-08
3.8530225e-07
3.4766689e-05
9.8482535e-09
3.6679875e-07
3.4469668e-05
9.835122e-09
3.5004233e-07
3.4186716e-05
1.0022916e-08
3.3480553e-07
3.3916567e-05
1.0377036e-08
3.2089289e-07
3.3658116e-05
1.086808e-08
3.0813662e-07
3.3410395e-05
1.1470959e-08
2.9639284e-07
3.3172556e-05
1.2164278e-08
2.855383e-07
3.2943852e-05
1.2929301e-08
2.754672e-07
3.2723625e-05
1.3750156e-08
2.6608892e-07
3.2511286e-05
1.4613088e-08
2.5732572e-07
3.2306316e-05
1.5506244e-08
2.4911066e-07
3.2108246e-05
1.6419628e-08
2.4138623e-07
3.1916658e-05
1.7344661e-08
2.3410268e-07
3.1731171e-05
1.8274343e-08
2.2721712e-07
3.1551444e-05
1.9203156e-08
2.2069216e-07
3.1377162e-05
2.0127715e-08
2.1449507e-07
3.1208038e-05
2.1048635e-08
2.0859679e-07
3.10438e-05
2.1972753e-08
2.0297057e-07
3.0884232e-05
2.2827824e-08
1.976074e-07
3.0729103e-05
2.3662982e-08
1.9248228e-07
3.05782e-05
2.4490032e-08
1.8757383e-07
3.0431331e-05
2.5296303e-08
1.8286765e-07
3.0288318e-05
2.6078029e-08
1.7835076e-07
3.0148994e-05
2.6834304e-08
1.7401109e-07
3.0013202e-05
2.7564707e-08
1.6983754e-07
2.9880797e-05
2.8268997e-08
1.6582026e-07
2.975164e-05
2.8947437e-08
1.6195013e-07
2.96256e-05
2.9600799e-08
1.5821898e-07
2.9502557e-05
3.0228587e-08
1.546192e-07
2.9382396e-05
3.0823616e-08
1.5114464e-07
2.9265007e-05
3.1393138e-08
1.4778876e-07
2.9150287e-05
3.1939592e-08
1.4454537e-07
2.9038137e-05
3.2461878e-08
1.4140899e-07
2.8928465e-05
3.2960066e-08
1.383746e-07
2.8821181e-05
3.3434703e-08
1.3543749e-07
2.8716203e-05
3.3886337e-08
1.3259329e-07
2.8613449e-05
3.4315521e-08
1.2983786e-07
2.8512845e-05
3.4722877e-08
1.2716737e-07
2.8414317e-05
3.5108962e-08
1.2457816e-07
2.8317797e-05
3.5474438e-08
1.220668e-07
2.8223219e-05
3.5819911e-08
1.1963009e-07
2.813052e-05
3.6145917e-08
1.1726492e-07
2.803964e-05
3.6453086e-08
1.149684e-07
2.7950522e-05
3.674188e-08
1.1273775e-07
2.7863111e-05
3.7012779e-08
1.1057027e-07
2.7777354e-05
3.7266264e-08
1.0846343e-07
2.7693204e-05
3.7502459e-08
1.0641475e-07
2.761061e-05
3.7721588e-08
1.0442173e-07
2.752953e-05
3.7923556e-08
1.0248201e-07
2.744992e-05
3.8107984e-08
1.0059304e-07
2.7371738e-05
3.8274265e-08
9.8752302e-08
2.7294949e-05
3.8421539e-08
9.6956912e-08
2.7219516e-05
3.8548726e-08
9.5203637e-08
2.714541e-05
3.8655124e-08
9.3488592e-08
2.7072603e-05
3.8741145e-08
9.180697e-08
2.7001079e-05
3.8810271e-08
9.0152317e-08
2.6930832e-05
3.8872133e-08
8.851657e-08
2.6861876e-05
3.8947387e-08
8.689053e-08
2.679426e-05
3.9073507e-08
8.5269197e-08
2.6728065e-05
3.9306945e-08
8.367596e-08
2.6663337e-05
3.9708352e-08
8.2271178e-08
2.659956e-05
4.0272024e-08
8.1836209e-08
2.6534295e-05
4.0698051e-08
8.4555709e-08
3.9620867e-08
1.1507131e-07
0.00010494757
5.6811081e-07
6.5033076e-06
9.8925416e-05
1.0462983e-06
6.6283516e-06
9.3480449e-05
1.3439844e-06
6.1835065e-06
8.8341777e-05
1.4751324e-06
5.9184763e-06
8.3502084e-05
1.4993911e-06
5.6187065e-06
7.9004057e-05
1.4572411e-06
5.2482679e-06
7.4853978e-05
1.3667382e-06
4.8478757e-06
7.1037378e-05
1.2423973e-06
4.4464569e-06
6.7536063e-05
1.0997693e-06
4.0563127e-06
6.4331998e-05
9.5192361e-07
3.683491e-06
6.1407318e-05
8.0805761e-07
3.3320524e-06
5.8744339e-05
6.7422205e-07
3.0046209e-06
5.6325632e-05
5.5404401e-07
2.7024907e-06
5.4133973e-05
4.4916752e-07
2.4259383e-06
5.2152298e-05
3.5972403e-07
2.174536e-06
5.0363747e-05
2.8484515e-07
1.9473718e-06
4.875178e-05
2.2310005e-07
1.7432015e-06
4.7300339e-05
1.7281167e-07
1.5605647e-06
4.5994012e-05
1.3226571e-07
1.3978748e-06
4.4818177e-05
9.9840024e-08
1.2534891e-06
4.3759121e-05
7.4075624e-08
1.1257614e-06
4.2804123e-05
5.3707629e-08
1.0130814e-06
4.1941503e-05
3.7671237e-08
9.1390377e-07
4.1160627e-05
2.5096472e-08
8.2676732e-07
4.0451891e-05
1.5294184e-08
7.5030388e-07
3.980679e-05
7.5281911e-09
6.8329174e-07
3.9217543e-05
1.6727341e-09
6.2455204e-07
3.8677513e-05
-3.0331167e-09
5.7313082e-07
3.8180739e-05
-6.6486693e-09
5.2807353e-07
3.7722004e-05
-9.3595145e-09
4.885345e-07
3.7296777e-05
-1.1371808e-08
4.5378927e-07
3.6901112e-05
-1.2818256e-08
4.2319912e-07
3.6531588e-05
-1.380532e-08
3.962048e-07
3.6185236e-05
-1.4417466e-08
3.7231875e-07
3.5859491e-05
-1.4721879e-08
3.5111776e-07
3.5552132e-05
-1.4772632e-08
3.322358e-07
3.5261237e-05
-1.461393e-08
3.1535729e-07
3.4985143e-05
-1.4282158e-08
3.0021088e-07
3.472241e-05
-1.3807683e-08
2.8656376e-07
3.4471787e-05
-1.3215879e-08
2.7421629e-07
3.4232185e-05
-1.2528187e-08
2.629977e-07
3.4002657e-05
-1.1762791e-08
2.5276175e-07
3.3782373e-05
-1.0935251e-08
2.4338336e-07
3.3570606e-05
-1.005877e-08
2.3475558e-07
3.3366714e-05
-9.1447399e-09
2.2678672e-07
3.3170131e-05
-8.2028361e-09
2.1939831e-07
3.2980356e-05
-7.2412263e-09
2.1252298e-07
3.279694e-05
-6.2668928e-09
2.061028e-07
3.2619482e-05
-5.2855474e-09
2.0008782e-07
3.2447623e-05
-4.3017975e-09
1.9443476e-07
3.228104e-05
-3.3190353e-09
1.8910585e-07
3.2119438e-05
-2.3382998e-09
1.8406735e-07
3.1962554e-05
-1.353074e-09
1.7928647e-07
3.1810075e-05
-2.7632011e-10
1.7472765e-07
3.1661878e-05
5.8584223e-10
1.7043907e-07
3.1517732e-05
1.4356301e-09
1.6637292e-07
3.1377429e-05
2.3038256e-09
1.6248957e-07
3.1240792e-05
3.1586463e-09
1.5877486e-07
3.1107656e-05
3.9969669e-09
1.5521719e-07
3.0977867e-05
4.8171499e-09
1.5180546e-07
3.0851284e-05
5.6179694e-09
1.4852968e-07
3.0727773e-05
6.399028e-09
1.4538079e-07
3.0607209e-05
7.1609221e-09
1.4235054e-07
3.0489473e-05
7.9059362e-09
1.3943121e-07
3.037445e-05
8.6357658e-09
1.366158e-07
3.0262049e-05
9.3206476e-09
1.3390397e-07
3.0152163e-05
9.9938077e-09
1.3128567e-07
3.0044697e-05
1.0650363e-08
1.2875514e-07
2.9939564e-05
1.1286749e-08
1.2630827e-07
2.983668e-05
1.1903231e-08
1.2394086e-07
2.9735965e-05
1.2500156e-08
1.2164885e-07
2.9637345e-05
1.3077881e-08
1.1942842e-07
2.9540748e-05
1.3636713e-08
1.1727618e-07
2.9446105e-05
1.4177011e-08
1.1518882e-07
2.9353352e-05
1.4699167e-08
1.1316339e-07
2.9262425e-05
1.5203527e-08
1.1119702e-07
2.9173268e-05
1.5690469e-08
1.0928708e-07
2.9085822e-05
1.6160383e-08
1.0743108e-07
2.9000035e-05
1.6613579e-08
1.0562662e-07
2.8915855e-05
1.7050382e-08
1.0387152e-07
2.8833233e-05
1.7471078e-08
1.0216363e-07
2.8752123e-05
1.7875972e-08
1.0050081e-07
2.8672479e-05
1.8265099e-08
9.8881096e-08
2.8594259e-05
1.8638536e-08
9.7302494e-08
2.8517424e-05
1.8996228e-08
9.5762946e-08
2.8441934e-05
1.9337811e-08
9.4260339e-08
2.8367753e-05
1.9662832e-08
9.2792366e-08
2.8294848e-05
1.9970479e-08
9.135629e-08
2.8223187e-05
2.0260015e-08
8.9948855e-08
2.8152746e-05
2.05307e-08
8.8565903e-08
2.8083503e-05
2.0782609e-08
8.7201799e-08
2.8015447e-05
2.1017535e-08
8.584867e-08
2.7948582e-05
2.1240736e-08
8.4495819e-08
2.7882937e-05
2.1462762e-08
8.312952e-08
2.7818574e-05
2.1699998e-08
8.173653e-08
2.7755588e-05
2.1969266e-08
8.0324368e-08
2.7694014e-05
2.2266161e-08
7.9016078e-08
2.7633299e-05
2.2506297e-08
7.8480637e-08
2.7571004e-05
2.239343e-08
8.0599468e-08
2.0993106e-08
1.0779947e-07
0.00010489986
2.7443376e-07
6.5049155e-06
9.8802772e-05
5.0716632e-07
6.6362236e-06
9.329591e-05
6.5854975e-07
6.1922972e-06
8.8116302e-05
7.2902546e-07
5.9257148e-06
8.3248198e-05