/*--------------------------------*- C++ -*----------------------------------*\
  =========                 |
  \\      /  F ield         | OpenFOAM: The Open Source CFD Toolbox
   \\    /   O peration     | Website:  https://openfoam.org
    \\  /    A nd           | Version:  7
     \\/     M anipulation  |
\*---------------------------------------------------------------------------*/
FoamFile
{
    version     2.0;
    format      ascii;
    class       volVectorField;
    location    "2500/water";
    object      U;
}
// * * * * * * * * * * * * * * * * * * * * * * * * * * * * * * * * * * * * * //

dimensions      [0 1 -1 0 0 0 0];

internalField   nonuniform List<vector> 
54000
(
(0.0090020934 0.00020305973 0.00020444027)
(0.0083186447 0.00023622738 0.00023904411)
(0.0073695241 0.00021363852 0.00021763527)
(0.0063566114 0.00018488016 0.00018965819)
(0.0054486673 0.00015530835 0.00016048633)
(0.0046741594 0.00012529952 0.00013052937)
(0.0040193038 9.7052611e-05 0.00010203017)
(0.0034740067 7.2578998e-05 7.7073287e-05)
(0.0030302461 5.2876127e-05 5.6738329e-05)
(0.0026757323 3.806815e-05 4.1216512e-05)
(0.0023947254 2.7637703e-05 3.0037141e-05)
(0.0021713898 2.0689035e-05 2.2336508e-05)
(0.0019919695 1.6236161e-05 1.7152703e-05)
(0.0018455015 1.3416236e-05 1.3643172e-05)
(0.0017237326 1.158249e-05 1.1179122e-05)
(0.0016206928 1.0304892e-05 9.3455811e-06)
(0.0015321593 9.3257911e-06 7.8957163e-06)
(0.0014551546 8.5052965e-06 6.6953106e-06)
(0.0013875459 7.774633e-06 5.6760581e-06)
(0.0013277612 7.1034271e-06 4.8034869e-06)
(0.001274601 6.4798497e-06 4.0581562e-06)
(0.0012271179 5.8999461e-06 3.4261577e-06)
(0.0011845424 5.3625307e-06 2.8950708e-06)
(0.001146235 4.8670218e-06 2.4526296e-06)
(0.0011116558 4.4126e-06 2.0869766e-06)
(0.0010803434 3.9980125e-06 1.7867454e-06)
(0.0010519002 3.62146e-06 1.541613e-06)
(0.0010259819 3.2805939e-06 1.3421861e-06)
(0.001002289 2.9733953e-06 1.179731e-06)
(0.00098056199 2.6979491e-06 1.0463209e-06)
(0.00096057572 2.4519202e-06 9.3658842e-07)
(0.00094213242 2.2325667e-06 8.4693325e-07)
(0.00092505792 2.0373864e-06 7.7316503e-07)
(0.00090920047 1.8640894e-06 7.1184252e-07)
(0.00089442818 1.7104633e-06 6.6046822e-07)
(0.0008806259 1.5743822e-06 6.170738e-07)
(0.00086769295 1.4538608e-06 5.8005354e-07)
(0.00085554128 1.3470707e-06 5.4811516e-07)
(0.00084409387 1.2523492e-06 5.2023832e-07)
(0.00083328322 1.1681996e-06 4.9562777e-07)
(0.00082305015 1.0932619e-06 4.7365297e-07)
(0.00081334267 1.0262303e-06 4.5378347e-07)
(0.00080411486 9.6585934e-07 4.3554491e-07)
(0.00079532615 9.113109e-07 4.1865086e-07)
(0.0007869407 8.6191656e-07 4.0290671e-07)
(0.00077892675 8.1708259e-07 3.8816701e-07)
(0.00077125603 7.7627685e-07 3.7432091e-07)
(0.0007639033 7.390269e-07 3.6127664e-07)
(0.00075684598 7.0491512e-07 3.4896394e-07)
(0.00075006373 6.7357498e-07 3.3733024e-07)
(0.00074353821 6.4469311e-07 3.2633629e-07)
(0.00073725294 6.1802407e-07 3.1581835e-07)
(0.00073119314 5.9334709e-07 3.0574408e-07)
(0.00072534528 5.7041854e-07 2.962114e-07)
(0.00071969687 5.4902424e-07 2.8716593e-07)
(0.00071423653 5.2901534e-07 2.785436e-07)
(0.00070895386 5.1027338e-07 2.7031151e-07)
(0.00070383928 4.9268657e-07 2.6244775e-07)
(0.00069888397 4.7614438e-07 2.5493193e-07)
(0.00069407976 4.6054969e-07 2.4774226e-07)
(0.00068941911 4.4582077e-07 2.4086324e-07)
(0.00068489502 4.3188474e-07 2.3427634e-07)
(0.00068050098 4.1867942e-07 2.2796433e-07)
(0.00067623091 4.0614717e-07 2.2191186e-07)
(0.00067207915 3.9423447e-07 2.1610529e-07)
(0.00066804042 3.8289677e-07 2.1053037e-07)
(0.00066410976 3.7209371e-07 2.05178e-07)
(0.00066028251 3.6179313e-07 2.0003204e-07)
(0.00065655429 3.5196234e-07 1.9508284e-07)
(0.00065292099 3.4256909e-07 1.9031804e-07)
(0.00064937872 3.3358524e-07 1.857284e-07)
(0.00064592384 3.2498756e-07 1.8130544e-07)
(0.00064255288 3.1675184e-07 1.7704062e-07)
(0.0006392626 3.0885551e-07 1.7292473e-07)
(0.00063604992 3.0128225e-07 1.6895123e-07)
(0.00063291192 2.9401297e-07 1.6511012e-07)
(0.00062984583 2.8703102e-07 1.6139853e-07)
(0.00062684904 2.8032201e-07 1.5780306e-07)
(0.00062391907 2.7387101e-07 1.5432007e-07)
(0.00062105358 2.6766666e-07 1.5094224e-07)
(0.00061825035 2.616945e-07 1.4766132e-07)
(0.00061550727 2.5594514e-07 1.4446902e-07)
(0.00061282235 2.504071e-07 1.4135936e-07)
(0.00061019373 2.4506967e-07 1.383239e-07)
(0.00060761964 2.3991977e-07 1.3535632e-07)
(0.00060509845 2.3494619e-07 1.3244844e-07)
(0.00060262862 2.3013511e-07 1.2959862e-07)
(0.00060020873 2.2547003e-07 1.2680458e-07)
(0.00059783744 2.2093122e-07 1.2407529e-07)
(0.00059551348 2.1649785e-07 1.214326e-07)
(0.00059323555 2.121483e-07 1.1892961e-07)
(0.00059100214 2.078711e-07 1.1666188e-07)
(0.00058881114 2.0368961e-07 1.1483001e-07)
(0.00058665898 1.9973154e-07 1.1382013e-07)
(0.00058453869 1.9638518e-07 1.144111e-07)
(0.00058243501 1.9487357e-07 1.1837339e-07)
(0.00058031396 1.9977544e-07 1.3094408e-07)
(0.0005781161 2.225856e-07 1.6397663e-07)
(0.00057566369 1.9706802e-07 1.5080563e-07)
(0.000569062 7.8896456e-07 7.5322592e-07)
(0.0095316863 0.0003313754 0.00022336697)
(0.0092716504 0.00041105942 0.00027052342)
(0.0087756651 0.00040317187 0.00026060062)
(0.0081527518 0.00038218754 0.00024252081)
(0.0075302151 0.00035309574 0.00022101124)
(0.0069425889 0.00031541062 0.00019648834)
(0.006391209 0.00027309198 0.00017102969)
(0.0058791845 0.00023030694 0.00014652546)
(0.0054120202 0.00019001855 0.00012410997)
(0.0049926512 0.00015423459 0.00010436627)
(0.004620592 0.00012408347 8.7479019e-05)
(0.0042931332 9.9809404e-05 7.3327496e-05)
(0.0040063965 8.0956424e-05 6.1601504e-05)
(0.0037559538 6.667221e-05 5.1918795e-05)
(0.0035372541 5.59858e-05 4.3907445e-05)
(0.003345947 4.7992056e-05 3.7246645e-05)
(0.0031780884 4.194171e-05 3.167753e-05)
(0.0030302311 3.7262447e-05 2.6997921e-05)
(0.0028994324 3.3540996e-05 2.3051139e-05)
(0.0027832152 3.0490243e-05 1.9714593e-05)
(0.0026795075 2.7915735e-05 1.6890544e-05)
(0.0025865783 2.5687841e-05 1.4499382e-05)
(0.002502978 2.3720893e-05 1.2475016e-05)
(0.0024274871 2.1958432e-05 1.0761725e-05)
(0.0023590736 2.0362994e-05 9.3122319e-06)
(0.0022968589 1.8909453e-05 8.0861291e-06)
(0.0022400906 1.7580767e-05 7.0489624e-06)
(0.0021881216 1.6364898e-05 6.1714978e-06)
(0.0021403932 1.5251963e-05 5.428315e-06)
(0.0020964214 1.4233849e-05 4.7973495e-06)
(0.0020557868 1.3303039e-05 4.2604809e-06)
(0.0020181236 1.2451986e-05 3.8027026e-06)
(0.0019831119 1.1673908e-05 3.4109602e-06)
(0.0019504718 1.0962755e-05 3.0744204e-06)
(0.0019199589 1.0312855e-05 2.7842602e-06)
(0.0018913593 9.7188334e-06 2.5331798e-06)
(0.0018644851 9.1756446e-06 2.3150737e-06)
(0.0018391716 8.6785728e-06 2.1248314e-06)
(0.0018152735 8.2232428e-06 1.9581831e-06)
(0.0017926629 7.805621e-06 1.8115681e-06)
(0.0017712268 7.4219981e-06 1.6820118e-06)
(0.001750865 7.068939e-06 1.5670702e-06)
(0.0017314886 6.74327e-06 1.464742e-06)
(0.0017130186 6.4422726e-06 1.3732761e-06)
(0.0016953848 6.1635561e-06 1.2911589e-06)
(0.0016785241 5.9049772e-06 1.2171193e-06)
(0.00166238 5.6646096e-06 1.1500835e-06)
(0.0016469019 5.4407255e-06 1.0891489e-06)
(0.001632044 5.2317781e-06 1.0335537e-06)
(0.0016177648 5.036384e-06 9.8265447e-07)
(0.0016040271 4.8533213e-06 9.3589418e-07)
(0.0015907965 4.6815615e-06 8.9273755e-07)
(0.0015780424 4.5201557e-06 8.5278656e-07)
(0.0015657364 4.3681524e-06 8.1577004e-07)
(0.0015538526 4.2246815e-06 7.8138541e-07)
(0.0015423672 4.0890616e-06 7.4934592e-07)
(0.0015312583 3.9607289e-06 7.1941324e-07)
(0.0015205058 3.8391515e-06 6.9138714e-07)
(0.0015100909 3.7238119e-06 6.6509371e-07)
(0.0014999963 3.6142434e-06 6.4037915e-07)
(0.0014902061 3.5100305e-06 6.1710731e-07)
(0.0014807053 3.4107992e-06 5.9515964e-07)
(0.00147148 3.3162113e-06 5.7442763e-07)
(0.0014625175 3.22596e-06 5.5481386e-07)
(0.0014538055 3.1397543e-06 5.3623536e-07)
(0.0014453328 3.0573344e-06 5.186125e-07)
(0.0014370889 2.9784694e-06 5.0187786e-07)
(0.0014290637 2.9029561e-06 4.8596737e-07)
(0.001421248 2.8306017e-06 4.7082317e-07)
(0.001413633 2.7612177e-06 4.5639291e-07)
(0.0014062104 2.6946319e-06 4.4262732e-07)
(0.0013989723 2.6306901e-06 4.2948678e-07)
(0.0013919116 2.5692456e-06 4.1693023e-07)
(0.0013850211 2.5101627e-06 4.0492035e-07)
(0.0013782945 2.4533174e-06 3.9342435e-07)
(0.0013717253 2.3985945e-06 3.8241227e-07)
(0.0013653078 2.3458839e-06 3.7185248e-07)
(0.0013590364 2.2950862e-06 3.6171787e-07)
(0.0013529058 2.2461047e-06 3.5198389e-07)
(0.001346911 2.1988514e-06 3.4262554e-07)
(0.0013410472 2.153241e-06 3.3362104e-07)
(0.0013353099 2.1091957e-06 3.2494562e-07)
(0.001329695 2.0666362e-06 3.1657809e-07)
(0.0013241983 2.0254891e-06 3.0850047e-07)
(0.001318816 1.9856736e-06 3.0068958e-07)
(0.0013135446 1.9471136e-06 2.931301e-07)
(0.0013083808 1.9097272e-06 2.8580487e-07)
(0.0013033213 1.8734248e-06 2.787025e-07)
(0.0012983632 1.8381157e-06 2.7181643e-07)
(0.0012935038 1.8037146e-06 2.651542e-07)
(0.0012887402 1.7701698e-06 2.5874347e-07)
(0.0012840698 1.7375324e-06 2.526503e-07)
(0.0012794889 1.7061209e-06 2.4701314e-07)
(0.0012749925 1.6769099e-06 2.4211271e-07)
(0.001270572 1.6524686e-06 2.3851842e-07)
(0.0012662098 1.6393346e-06 2.3766059e-07)
(0.0012618709 1.6545772e-06 2.4458293e-07)
(0.0012574959 1.7463727e-06 2.7712423e-07)
(0.0012529717 2.0376703e-06 2.6526396e-07)
(0.0012433358 2.9514823e-06 1.352533e-06)
(0.0095221617 0.00021179965 0.00022180582)
(0.009269783 0.00029872516 0.00026628967)
(0.0088657772 0.00031669844 0.00025526743)
(0.0083755729 0.00031743801 0.00023864265)
(0.0078888426 0.00030841043 0.00021987851)
(0.0074276349 0.00028848207 0.00019850458)
(0.006988258 0.00026048391 0.00017617916)
(0.0065698164 0.00022855168 0.00015444521)
(0.0061756011 0.00019596771 0.00013413534)
(0.0058087146 0.00016504408 0.00011567593)
(0.0054706295 0.00013728621 9.927084e-05)
(0.0051615551 0.00011345265 8.4947831e-05)
(0.0048808654 9.3684507e-05 7.2600738e-05)
(0.0046272998 7.7712987e-05 6.2044901e-05)
(0.0043991196 6.5057025e-05 5.3064542e-05)
(0.0041942886 5.5163888e-05 4.544363e-05)
(0.0040106431 4.7493347e-05 3.8982753e-05)
(0.0038460219 4.1561376e-05 3.3506382e-05)
(0.0036983537 3.6958193e-05 2.8864075e-05)
(0.0035657105 3.3351175e-05 2.4928487e-05)
(0.0034463343 3.0479502e-05 2.1592135e-05)
(0.003338646 2.8144769e-05 1.87641e-05)
(0.003241243 2.6200155e-05 1.6367139e-05)
(0.0031528887 2.4539753e-05 1.4335368e-05)
(0.0030724986 2.3088867e-05 1.2612489e-05)
(0.0029991252 2.1796113e-05 1.1150134e-05)
(0.0029319421 2.0626904e-05 9.906481e-06)
(0.0028702292 1.9558163e-05 8.8458161e-06)
(0.0028133589 1.8574037e-05 7.9385386e-06)
(0.0027607855 1.7663622e-05 7.1598226e-06)
(0.0027120345 1.6818832e-05 6.4890358e-06)
(0.0026666927 1.6033066e-05 5.9090205e-06)
(0.0026243991 1.5301095e-05 5.4052729e-06)
(0.0025848383 1.4618819e-05 4.9656524e-06)
(0.0025477347 1.3982713e-05 4.5801149e-06)
(0.0025128472 1.3389543e-05 4.240327e-06)
(0.002479964 1.2836281e-05 3.9393559e-06)
(0.0024488994 1.232006e-05 3.6714258e-06)
(0.0024194896 1.1838145e-05 3.4317251e-06)
(0.00239159 1.1387941e-05 3.2162516e-06)
(0.0023650729 1.0966986e-05 3.0216605e-06)
(0.0023398248 1.0573e-05 2.8451739e-06)
(0.0023157449 1.0203875e-05 2.6844745e-06)
(0.0022927433 9.8575809e-06 2.5375952e-06)
(0.0022707398 9.5322158e-06 2.4028644e-06)
(0.002249662 9.2260278e-06 2.2788668e-06)
(0.0022294453 8.9374182e-06 2.1644003e-06)
(0.0022100312 8.6649283e-06 2.0584377e-06)
(0.0021913666 8.4072366e-06 1.9601011e-06)
(0.0021734038 8.1631543e-06 1.8686315e-06)
(0.0021560989 7.9316212e-06 1.7833674e-06)
(0.0021394122 7.7117245e-06 1.7037081e-06)
(0.0021233074 7.5026014e-06 1.6291512e-06)
(0.0021077512 7.3033778e-06 1.5592827e-06)
(0.0020927129 7.1131867e-06 1.4937196e-06)
(0.0020781645 6.9314169e-06 1.4321051e-06)
(0.0020640799 6.757606e-06 1.3741142e-06)
(0.0020504351 6.5912618e-06 1.3194611e-06)
(0.0020372075 6.4318795e-06 1.2678949e-06)
(0.0020243766 6.2790069e-06 1.2191866e-06)
(0.0020119231 6.132242e-06 1.1731322e-06)
(0.001999829 5.9912212e-06 1.1295432e-06)
(0.0019880776 5.85561e-06 1.0882494e-06)
(0.0019766531 5.7251029e-06 1.0490949e-06)
(0.0019655411 5.5994074e-06 1.0119374e-06)
(0.0019547276 5.4782446e-06 9.7664638e-07)
(0.0019441999 5.3613888e-06 9.4310078e-07)
(0.0019339458 5.2486467e-06 9.1118938e-07)
(0.0019239539 5.1398172e-06 8.8080714e-07)
(0.0019142135 5.0347029e-06 8.5186022e-07)
(0.0019047144 4.9331189e-06 8.2425988e-07)
(0.001895447 4.8349009e-06 7.9792421e-07)
(0.0018864023 4.7398902e-06 7.7278012e-07)
(0.0018775718 4.6479437e-06 7.4875579e-07)
(0.0018689473 4.5589222e-06 7.2578748e-07)
(0.0018605211 4.4726994e-06 7.0381406e-07)
(0.0018522861 4.3891525e-06 6.8277709e-07)
(0.0018442353 4.3081684e-06 6.6262464e-07)
(0.0018363621 4.2296386e-06 6.4330789e-07)
(0.0018286604 4.153457e-06 6.2477619e-07)
(0.0018211241 4.0795272e-06 6.0698842e-07)
(0.0018137478 4.0077533e-06 5.8990093e-07)
(0.0018065261 3.9380351e-06 5.7347262e-07)
(0.001799454 3.8702795e-06 5.5766692e-07)
(0.0017925266 3.8043824e-06 5.4244675e-07)
(0.0017857396 3.7402369e-06 5.2777808e-07)
(0.0017790885 3.6777272e-06 5.1362906e-07)
(0.0017725695 3.616727e-06 4.999707e-07)
(0.0017661787 3.5571084e-06 4.8677572e-07)
(0.0017599128 3.498762e-06 4.7402566e-07)
(0.0017537682 3.4416542e-06 4.6170934e-07)
(0.0017477416 3.3859646e-06 4.4983582e-07)
(0.0017418294 3.3323834e-06 4.3844291e-07)
(0.0017360272 3.2827925e-06 4.2764678e-07)
(0.0017303281 3.2417778e-06 4.177681e-07)
(0.0017247202 3.2200421e-06 4.0999067e-07)
(0.001719183 3.2421553e-06 4.0984943e-07)
(0.001713691 3.3643446e-06 4.4114362e-07)
(0.0017081999 3.7072199e-06 4.7353376e-07)
(0.0016974804 4.4611197e-06 1.8634993e-06)
(0.0095012861 0.00013951169 0.00022248511)
(0.0092133349 0.00022408325 0.00026709763)
(0.0088018509 0.00025700941 0.00025529581)
(0.0083306071 0.00026690691 0.0002382081)
(0.0078754299 0.00026502159 0.00021939836)
(0.0074527063 0.0002529565 0.00019823245)
(0.0070564396 0.00023295893 0.00017634609)
(0.0066827538 0.00020836345 0.0001552305)
(0.006331873 0.00018203354 0.00013558338)
(0.0060047052 0.00015603739 0.00011769036)
(0.0057015056 0.00013180401 0.00010166909)
(0.0054220192 0.00011020724 8.7524314e-05)
(0.0051656909 9.1631899e-05 7.5171986e-05)
(0.0049316845 7.6091186e-05 6.4472618e-05)
(0.0047188814 6.3363142e-05 5.5261149e-05)
(0.0045259349 5.3104942e-05 4.7366821e-05)
(0.0043513547 4.4932757e-05 4.06249e-05)
(0.0041935865 3.847136e-05 3.4883032e-05)
(0.0040510752 3.3381245e-05 3.0003996e-05)
(0.0039223115 2.937051e-05 2.5866183e-05)
(0.0038058643 2.6197263e-05 2.2362869e-05)
(0.0037004012 2.3666733e-05 1.9400963e-05)
(0.0036047 2.1625759e-05 1.6899611e-05)
(0.0035176529 1.9956327e-05 1.4788823e-05)
(0.0034382652 1.8569047e-05 1.3008103e-05)
(0.0033656513 1.7397362e-05 1.1504744e-05)
(0.0032990266 1.6392004e-05 1.0233524e-05)
(0.0032376995 1.5516242e-05 9.1565345e-06)
(0.0031810636 1.4743886e-05 8.242112e-06)
(0.0031285885 1.4056151e-05 7.4635751e-06)
(0.0030798115 1.3438893e-05 6.7985207e-06)
(0.0030343294 1.2881151e-05 6.2282212e-06)
(0.0029917905 1.2374494e-05 5.736983e-06)
(0.0029518882 1.1912419e-05 5.311667e-06)
(0.0029143553 1.1489691e-05 4.9413539e-06)
(0.0028789586 1.1101929e-05 4.6170012e-06)
(0.0028454946 1.074538e-05 4.3311226e-06)
(0.0028137847 1.0416776e-05 4.0775283e-06)
(0.0027836727 1.0113219e-05 3.8511076e-06)
(0.0027550209 9.8321225e-06 3.6476449e-06)
(0.0027277081 9.5711597e-06 3.4636642e-06)
(0.002701627 9.3282501e-06 3.2963012e-06)
(0.0026766823 9.1015159e-06 3.1431917e-06)
(0.0026527895 8.8892444e-06 3.002383e-06)
(0.0026298729 8.6898924e-06 2.8722568e-06)
(0.0026078648 8.5020885e-06 2.7514715e-06)
(0.002586704 8.3246167e-06 2.6389108e-06)
(0.0025663358 8.1563959e-06 2.5336417e-06)
(0.0025467102 7.9964758e-06 2.4348861e-06)
(0.002527782 7.8440272e-06 2.3419793e-06)
(0.0025095101 7.6983375e-06 2.2543621e-06)
(0.0024918566 7.5588099e-06 2.1715455e-06)
(0.0024747871 7.4248978e-06 2.0931123e-06)
(0.0024582699 7.2960205e-06 2.0187198e-06)
(0.0024422756 7.1714389e-06 1.9480691e-06)
(0.0024267775 7.0509281e-06 1.8808985e-06)
(0.0024117506 6.9343773e-06 1.8169526e-06)
(0.0023971715 6.8214905e-06 1.7560024e-06)
(0.0023830185 6.7119571e-06 1.6978524e-06)
(0.0023692714 6.6055389e-06 1.6423281e-06)
(0.0023559116 6.5020447e-06 1.5892719e-06)
(0.0023429214 6.4013081e-06 1.5385384e-06)
(0.0023302844 6.3031798e-06 1.4899941e-06)
(0.0023179851 6.2075234e-06 1.4435164e-06)
(0.0023060089 6.1142035e-06 1.3989939e-06)
(0.0022943424 6.0230677e-06 1.3563261e-06)
(0.0022829727 5.9340559e-06 1.3154151e-06)
(0.0022718877 5.8471286e-06 1.2761697e-06)
(0.002261076 5.762204e-06 1.2385023e-06)
(0.0022505267 5.6791988e-06 1.2023306e-06)
(0.0022402296 5.5980429e-06 1.1675836e-06)
(0.0022301752 5.5186734e-06 1.1341882e-06)
(0.0022203542 5.4410304e-06 1.1020801e-06)
(0.002210758 5.3650621e-06 1.0711994e-06)
(0.0022013784 5.2907164e-06 1.0414841e-06)
(0.0021922076 5.2179473e-06 1.0128809e-06)
(0.0021832381 5.1467093e-06 9.8533732e-07)
(0.0021744628 5.0769573e-06 9.5880241e-07)
(0.0021658752 5.0086495e-06 9.3323103e-07)
(0.0021574688 4.9417439e-06 9.0857456e-07)
(0.0021492375 4.876197e-06 8.8479074e-07)
(0.0021411756 4.8119661e-06 8.6183884e-07)
(0.0021332776 4.748999e-06 8.3967874e-07)
(0.0021255383 4.6872395e-06 8.1827037e-07)
(0.0021179527 4.6266221e-06 7.9757678e-07)
(0.0021105161 4.5670682e-06 7.7756005e-07)
(0.0021032242 4.5084823e-06 7.5818312e-07)
(0.0020960727 4.4507557e-06 7.3941065e-07)
(0.0020890577 4.3937751e-06 7.2120276e-07)
(0.0020821756 4.3374549e-06 7.0352104e-07)
(0.002075423 4.2818105e-06 6.8632115e-07)
(0.0020687967 4.2271342e-06 6.6956143e-07)
(0.0020622937 4.1743545e-06 6.5320279e-07)
(0.002055911 4.1258157e-06 6.3726171e-07)
(0.0020496453 4.0868292e-06 6.2198434e-07)
(0.0020434926 4.0687773e-06 6.0874607e-07)
(0.0020374483 4.0948772e-06 6.0452207e-07)
(0.0020315149 4.2094253e-06 6.398779e-07)
(0.0020256647 4.4797496e-06 7.1688449e-07)
(0.0020144539 4.9057759e-06 2.2695258e-06)
(0.0094902877 9.6726608e-05 0.00022289229)
(0.00917661 0.00016632333 0.00026788105)
(0.0087449456 0.00019969046 0.00025550648)
(0.0082664657 0.00021101604 0.00023762681)
(0.00781215 0.0002109939 0.0002181603)
(0.0073950862 0.0002028236 0.00019646328)
(0.0070087986 0.00018827265 0.00017418493)
(0.006648835 0.00016968865 0.0001528463)
(0.0063142174 0.00014929331 0.00013312182)
(0.0060045996 0.00012875288 0.0001152379)
(0.0057192201 0.00010923292 9.9256791e-05)
(0.0054570682 9.1490069e-05 8.514891e-05)
(0.0052170782 7.5923399e-05 7.2816212e-05)
(0.0049981259 6.264333e-05 6.2119133e-05)
(0.0047989841 5.1561152e-05 5.2900047e-05)
(0.0046183234 4.2472279e-05 4.4997976e-05)
(0.0044547458 3.5118726e-05 3.8256897e-05)
(0.0043068267 2.9230545e-05 3.2530441e-05)
(0.0041731526 2.4550835e-05 2.7684339e-05)
(0.0040523509 2.0849112e-05 2.3597362e-05)
(0.0039431142 1.7926913e-05 2.0161345e-05)
(0.0038442168 1.5618601e-05 1.7280682e-05)
(0.0037545253 1.3789366e-05 1.487153e-05)
(0.0036730042 1.2331758e-05 1.2860862e-05)
(0.0035987172 1.1161539e-05 1.1185212e-05)
(0.0035308247 1.0213366e-05 9.7889738e-06)
(0.0034685786 9.4380822e-06 8.6250717e-06)
(0.0034113173 8.7971263e-06 7.6543145e-06)
(0.0033584589 8.2627192e-06 6.8439393e-06)
(0.0033094933 7.8140803e-06 6.1664552e-06)
(0.0032639753 7.4348239e-06 5.5988456e-06)
(0.0032215172 7.1121287e-06 5.1219268e-06)
(0.0031817817 6.8360957e-06 4.7197277e-06)
(0.0031444758 6.59902e-06 4.3789742e-06)
(0.0031093448 6.3947795e-06 4.0886812e-06)
(0.0030761678 6.2184061e-06 3.8397978e-06)
(0.0030447526 6.0657967e-06 3.6248786e-06)
(0.003014932 5.9335274e-06 3.4378176e-06)
(0.0029865602 5.818697e-06 3.2736171e-06)
(0.0029595097 5.7188184e-06 3.128204e-06)
(0.002933669 5.6317494e-06 2.9982611e-06)
(0.0029089401 5.5556269e-06 2.881097e-06)
(0.0028852364 5.4888247e-06 2.774534e-06)
(0.0028624815 5.4299146e-06 2.6768105e-06)
(0.0028406075 5.3776432e-06 2.5865051e-06)
(0.0028195538 5.3309235e-06 2.5024723e-06)
(0.0027992664 5.2888092e-06 2.4237894e-06)
(0.0027796963 5.2504816e-06 2.3497113e-06)
(0.0027607998 5.215242e-06 2.2796383e-06)
(0.002742537 5.1824979e-06 2.2130839e-06)
(0.0027248717 5.1517655e-06 2.1496553e-06)
(0.0027077708 5.1226674e-06 2.0890223e-06)
(0.002691204 5.0948947e-06 2.0309207e-06)
(0.0026751435 5.0680861e-06 1.9751368e-06)
(0.0026595636 5.0410664e-06 1.9215407e-06)
(0.0026444411 5.0142586e-06 1.869967e-06)
(0.002629754 4.9880184e-06 1.8202523e-06)
(0.0026154815 4.9620725e-06 1.7722782e-06)
(0.0026016045 4.9361414e-06 1.7259598e-06)
(0.0025881054 4.9100864e-06 1.6812147e-06)
(0.0025749674 4.8838323e-06 1.6379651e-06)
(0.002562175 4.8573388e-06 1.5961451e-06)
(0.0025497136 4.83058e-06 1.5556919e-06)
(0.0025375693 4.8035396e-06 1.5165482e-06)
(0.0025257292 4.7761757e-06 1.4786601e-06)
(0.002514181 4.7483826e-06 1.4419852e-06)
(0.0025029134 4.7202735e-06 1.4064828e-06)
(0.0024919153 4.6919131e-06 1.3721022e-06)
(0.0024811765 4.6632905e-06 1.338797e-06)
(0.002470687 4.6344012e-06 1.3065287e-06)
(0.0024604377 4.6052677e-06 1.2752604e-06)
(0.0024504197 4.5759088e-06 1.2449546e-06)
(0.0024406247 4.5463461e-06 1.2155766e-06)
(0.0024310448 4.516601e-06 1.1870933e-06)
(0.0024216723 4.4866944e-06 1.159473e-06)
(0.0024125001 4.45665e-06 1.1326845e-06)
(0.0024035213 4.4264886e-06 1.1066969e-06)
(0.0023947295 4.3962285e-06 1.0814823e-06)
(0.0023861184 4.365889e-06 1.0570142e-06)
(0.0023776821 4.3354864e-06 1.0332602e-06)
(0.0023694149 4.3050327e-06 1.0101964e-06)
(0.0023613115 4.2745348e-06 9.8779457e-07)
(0.0023533667 4.2439935e-06 9.6602942e-07)
(0.0023455757 4.2133967e-06 9.4487331e-07)
(0.0023379338 4.1827202e-06 9.2429891e-07)
(0.0023304365 4.1519265e-06 9.0427602e-07)
(0.0023230798 4.1209546e-06 8.8477224e-07)
(0.0023158598 4.0897261e-06 8.6575266e-07)
(0.0023087726 4.0581562e-06 8.4717249e-07)
(0.002301815 4.0261918e-06 8.2898091e-07)
(0.0022949838 3.9938768e-06 8.1110702e-07)
(0.0022882766 3.961531e-06 7.9346308e-07)
(0.002281691 3.9300783e-06 7.7594416e-07)
(0.0022752261 3.9016929e-06 7.5847796e-07)
(0.002268882 3.88094e-06 7.4124652e-07)
(0.0022626608 3.8766475e-06 7.2572579e-07)
(0.0022565686 3.9043041e-06 7.1957903e-07)
(0.0022506189 3.9866542e-06 7.5579939e-07)
(0.0022447715 4.1391015e-06 8.4931733e-07)
(0.002233564 4.2832247e-06 2.4122107e-06)
(0.0094843561 6.6886586e-05 0.00022303624)
(0.0091549219 0.00011904886 0.00026838771)
(0.0087072816 0.00014772496 0.00025588053)
(0.0082191888 0.00015892952 0.00023765677)
(0.0077602858 0.00016026049 0.00021787143)
(0.0073412804 0.00015505102 0.00019586613)
(0.0069552494 0.00014481701 0.00017327438)
(0.0065978366 0.00013121474 0.00015165024)
(0.0062677954 0.00011592881 0.00013169211)
(0.0059642872 0.00010028521 0.0001136244)
(0.0056860598 8.5214431e-05 9.7497522e-05)
(0.0054316726 7.1330406e-05 8.3272195e-05)
(0.0051997008 5.8984296e-05 7.0844884e-05)
(0.0049887459 4.8311752e-05 6.0073373e-05)
(0.0047973943 3.9291583e-05 5.079889e-05)
(0.0046242055 3.1804354e-05 4.2859903e-05)
(0.0044677269 2.5679086e-05 3.6099808e-05)
(0.0043265179 2.0725786e-05 3.0371291e-05)
(0.0041991724 1.6756343e-05 2.5538702e-05)
(0.004084339 1.3596838e-05 2.1479083e-05)
(0.0039807371 1.1093755e-05 1.8082323e-05)
(0.0038871692 9.1161649e-06 1.525079e-05)
(0.0038025288 7.5553807e-06 1.2898646e-05)
(0.003725804 6.323135e-06 1.0950985e-05)
(0.0036560786 5.3488201e-06 9.3426774e-06)
(0.0035925304 4.5751813e-06 8.0166132e-06)
(0.0035344253 3.9620988e-06 6.9239489e-06)
(0.0034811131 3.4726261e-06 6.0250733e-06)
(0.0034320221 3.0815196e-06 5.2862636e-06)
(0.0033866501 2.7702768e-06 4.6792113e-06)
(0.0033445586 2.5236748e-06 4.1805211e-06)
(0.0033053662 2.3295848e-06 3.7707527e-06)
(0.0032687419 2.1784971e-06 3.4337455e-06)
(0.0032343982 2.062906e-06 3.1561115e-06)
(0.0032020863 1.9768093e-06 2.9267975e-06)
(0.0031715907 1.9153178e-06 2.736704e-06)
(0.0031427248 1.8743797e-06 2.5783558e-06)
(0.0031153267 1.8506043e-06 2.4456295e-06)
(0.0030892563 1.841124e-06 2.3335226e-06)
(0.0030643915 1.8434984e-06 2.237967e-06)
(0.003040626 1.8556449e-06 2.1556636e-06)
(0.0030178671 1.8757807e-06 2.0839508e-06)
(0.0029960335 1.9023815e-06 2.0206948e-06)
(0.0029750538 1.9341356e-06 1.9641825e-06)
(0.0029548649 1.9699146e-06 1.9130532e-06)
(0.0029354109 2.0087625e-06 1.8662271e-06)
(0.0029166424 2.0498588e-06 1.8228525e-06)
(0.0028985148 2.092509e-06 1.7822582e-06)
(0.0028809886 2.1361374e-06 1.7439151e-06)
(0.0028640277 2.1802712e-06 1.7074093e-06)
(0.0028475999 2.2245509e-06 1.6724139e-06)
(0.0028316758 2.2687605e-06 1.638655e-06)
(0.0028162284 2.3128935e-06 1.6058713e-06)
(0.0028012324 2.3570795e-06 1.5738228e-06)
(0.0027866658 2.3978722e-06 1.5431879e-06)
(0.0027725089 2.4362351e-06 1.513687e-06)
(0.0027587418 2.4734401e-06 1.4848883e-06)
(0.002745346 2.5095344e-06 1.4567023e-06)
(0.002732305 2.5443496e-06 1.4291166e-06)
(0.0027196032 2.5777723e-06 1.4021117e-06)
(0.0027072261 2.6097247e-06 1.3756635e-06)
(0.0026951602 2.6401658e-06 1.349756e-06)
(0.0026833928 2.6690875e-06 1.3243744e-06)
(0.0026719116 2.6965043e-06 1.2995082e-06)
(0.0026607054 2.7223721e-06 1.2751519e-06)
(0.0026497635 2.7463535e-06 1.2513126e-06)
(0.002639076 2.7689072e-06 1.2279785e-06)
(0.0026286333 2.790145e-06 1.2051292e-06)
(0.0026184262 2.8099928e-06 1.1827614e-06)
(0.0026084461 2.8284317e-06 1.1608702e-06)
(0.0025986849 2.8454922e-06 1.1394485e-06)
(0.0025891348 2.8612172e-06 1.1184901e-06)
(0.0025797885 2.8756483e-06 1.0979856e-06)
(0.002570639 2.888829e-06 1.0779286e-06)
(0.0025616795 2.9008049e-06 1.0583089e-06)
(0.0025529038 2.9116196e-06 1.0391184e-06)
(0.0025443058 2.9213132e-06 1.0203486e-06)
(0.0025358796 2.9299289e-06 1.0019896e-06)
(0.0025276198 2.9375053e-06 9.8403252e-07)
(0.002519521 2.9440787e-06 9.6646543e-07)
(0.0025115783 2.9496803e-06 9.4927944e-07)
(0.0025037869 2.9543359e-06 9.3246084e-07)
(0.0024961421 2.9580669e-06 9.1599962e-07)
(0.0024886396 2.960881e-06 8.9987994e-07)
(0.0024812752 2.9627714e-06 8.8408489e-07)
(0.002474045 2.9637203e-06 8.6859328e-07)
(0.0024669452 2.9636876e-06 8.5338171e-07)
(0.0024599723 2.9626141e-06 8.3841424e-07)
(0.0024531231 2.9604308e-06 8.2364351e-07)
(0.0024463945 2.9570976e-06 8.0900336e-07)
(0.0024397839 2.9526514e-06 7.943997e-07)
(0.0024332895 2.9473506e-06 7.7969369e-07)
(0.0024269099 2.9419135e-06 7.6470962e-07)
(0.0024206457 2.9379228e-06 7.4926068e-07)
(0.0024144993 2.938419e-06 7.3336547e-07)
(0.0024084767 2.948495e-06 7.1826487e-07)
(0.0024025877 2.9751237e-06 7.1113327e-07)
(0.002396846 3.0234605e-06 7.4331364e-07)
(0.0023911946 3.0808302e-06 8.3046587e-07)
(0.0023803644 3.0574254e-06 2.2999428e-06)
(0.0094810492 4.4090135e-05 0.00022308885)
(0.0091422796 7.9975482e-05 0.00026874495)
(0.0086839084 0.00010160921 0.00025628771)
(0.0081880903 0.00011101591 0.00023793456)
(0.0077246858 0.00011275118 0.00021798622)
(0.0073029895 0.00010953687 0.00019578738)
(0.0069155191 0.00010266029 0.00017296032)
(0.0065579578 9.3267235e-05 0.0001510852)
(0.006229001 8.2539593e-05 0.00013089045)
(0.005927585 7.1446832e-05 0.00011261412)
(0.0056522063 6.0673359e-05 9.6309239e-05)
(0.0054012005 5.0670807e-05 8.1936268e-05)
(0.0051729477 4.1706607e-05 6.9390832e-05)
(0.004965887 3.3898114e-05 5.8529097e-05)
(0.0047784814 2.7249953e-05 4.9189878e-05)
(0.0046092054 2.1693073e-05 4.1208773e-05)
(0.0044565535 1.7117437e-05 3.4426143e-05)
(0.0043190553 1.3395518e-05 2.8691659e-05)
(0.0041952917 1.039781e-05 2.3866804e-05)
(0.0040839086 8.002331e-06 1.9826011e-05)
(0.0039836292 6.0997709e-06 1.6456861e-05)
(0.0038932634 4.5956634e-06 1.3659715e-05)
(0.0038117126 3.4106736e-06 1.1347012e-05)
(0.0037379734 2.4799301e-06 9.4422917e-06)
(0.0036711359 1.7515125e-06 7.8790891e-06)
(0.0036103859 1.1749052e-06 6.6010314e-06)
(0.0035549935 7.2234114e-07 5.5561193e-06)
(0.0035043108 3.7342532e-07 4.7060694e-06)
(0.0034577717 1.0569692e-07 4.0163441e-06)
(0.0034148763 -9.9088009e-08 3.4574146e-06)
(0.0033751872 -2.5333411e-07 3.0054957e-06)
(0.0033383243 -3.6639911e-07 2.6409746e-06)
(0.0033039576 -4.4577931e-07 2.3475724e-06)
(0.0032718009 -4.9748334e-07 2.1118256e-06)
(0.0032416065 -5.2634595e-07 1.9226416e-06)
(0.0032131599 -5.3630983e-07 1.7709147e-06)
(0.0031862758 -5.3064052e-07 1.6492022e-06)
(0.0031607936 -5.120625e-07 1.5514408e-06)
(0.0031365743 -4.8287172e-07 1.4727098e-06)
(0.0031134976 -4.450068e-07 1.4090329e-06)
(0.0030914586 -4.0011085e-07 1.3572046e-06)
(0.0030703663 -3.4957827e-07 1.3146559e-06)
(0.0030501409 -2.9459348e-07 1.279331e-06)
(0.0030307129 -2.361684e-07 1.2495917e-06)
(0.0030120207 -1.7516506e-07 1.2241404e-06)
(0.0029940105 -1.1231988e-07 1.2019542e-06)
(0.0029766343 -4.8266047e-08 1.1822242e-06)
(0.0029598495 1.6450644e-08 1.1643222e-06)
(0.0029436181 8.1356129e-08 1.1477527e-06)
(0.002927906 1.46025e-07 1.1321248e-06)
(0.0029126825 2.1005917e-07 1.1171189e-06)
(0.0028979201 2.730505e-07 1.1024402e-06)
(0.0028835935 3.3454147e-07 1.0876603e-06)
(0.0028696773 3.9432427e-07 1.0722028e-06)
(0.0028561514 4.5704979e-07 1.0590084e-06)
(0.0028429997 5.2060047e-07 1.0472578e-06)
(0.0028302035 5.8225258e-07 1.0356079e-06)
(0.0028177449 6.4163943e-07 1.0238009e-06)
(0.0028056084 6.9901946e-07 1.0118743e-06)
(0.0027937799 7.5455985e-07 9.9986864e-07)
(0.0027822461 8.0835065e-07 9.878097e-07)
(0.0027709946 8.6046863e-07 9.7571918e-07)
(0.0027600137 9.110254e-07 9.6360243e-07)
(0.0027492926 9.6019454e-07 9.5144781e-07)
(0.0027388207 1.0080041e-06 9.3926603e-07)
(0.0027285887 1.0528491e-06 9.2746528e-07)
(0.0027185878 1.0958666e-06 9.1583001e-07)
(0.0027088089 1.1375002e-06 9.0425402e-07)
(0.0026992438 1.1777664e-06 8.9276001e-07)
(0.0026898847 1.2166566e-06 8.8136503e-07)
(0.0026807244 1.2541683e-06 8.7007976e-07)
(0.0026717559 1.2903124e-06 8.5890698e-07)
(0.0026629726 1.3251066e-06 8.478521e-07)
(0.0026543682 1.358572e-06 8.3692244e-07)
(0.0026459367 1.3907393e-06 8.2612197e-07)
(0.0026376723 1.4216356e-06 8.1545372e-07)
(0.0026295698 1.4512883e-06 8.0491943e-07)
(0.0026216238 1.4797304e-06 7.9452291e-07)
(0.0026138294 1.5069891e-06 7.8426429e-07)
(0.002606182 1.5330919e-06 7.7414065e-07)
(0.0025986769 1.5580615e-06 7.6415265e-07)
(0.0025913099 1.5819199e-06 7.5429481e-07)
(0.0025840769 1.60468e-06 7.4456443e-07)
(0.0025769739 1.6263476e-06 7.349522e-07)