/*--------------------------------*- C++ -*----------------------------------*\
  =========                 |
  \\      /  F ield         | OpenFOAM: The Open Source CFD Toolbox
   \\    /   O peration     | Website:  https://openfoam.org
    \\  /    A nd           | Version:  7
     \\/     M anipulation  |
\*---------------------------------------------------------------------------*/
FoamFile
{
    version     2.0;
    format      ascii;
    class       surfaceScalarField;
    location    "3100/water";
    object      phi;
}
// * * * * * * * * * * * * * * * * * * * * * * * * * * * * * * * * * * * * * //

dimensions      [1 0 -1 0 0 0 0];

internalField   nonuniform List<scalar> 
156660
(
9.9057239e-05
6.0010402e-06
6.0528092e-06
8.6847498e-05
6.0555113e-06
6.1542307e-06
7.5687891e-05
5.5111362e-06
5.6484701e-06
6.5441704e-05
5.0404181e-06
5.2057689e-06
5.6267661e-05
4.4956436e-06
4.6783992e-06
4.8318019e-05
3.8797648e-06
4.0698777e-06
4.1624776e-05
3.2524448e-06
3.4407981e-06
3.6124897e-05
2.660462e-06
2.839417e-06
3.1692235e-05
2.1345127e-06
2.2981489e-06
2.8162841e-05
1.6926975e-06
1.8366964e-06
2.5361437e-05
1.3399933e-06
1.4614113e-06
2.3124664e-05
1.0698477e-06
1.1669256e-06
2.1315127e-05
8.6875419e-07
9.4078224e-07
1.9825714e-05
7.2110066e-07
7.6831271e-07
1.8577278e-05
6.1248246e-07
6.3595306e-07
1.7513255e-05
5.3125219e-07
5.3277148e-07
1.6593744e-05
4.6879723e-07
4.507135e-07
1.5790433e-05
4.1913716e-07
3.8417385e-07
1.5082784e-05
3.782907e-07
3.2935847e-07
1.4455417e-05
3.4367128e-07
2.8369562e-07
1.3896409e-05
3.136141e-07
2.4539331e-07
1.339622e-05
2.870445e-07
2.1314451e-07
1.2947015e-05
2.6326031e-07
1.859451e-07
1.2542237e-05
2.4179367e-07
1.6298458e-07
1.2176318e-05
2.2232208e-07
1.4359692e-07
1.1844484e-05
2.0461479e-07
1.2721878e-07
1.1542609e-05
1.8849494e-07
1.1337972e-07
1.1267116e-05
1.7381573e-07
1.0167794e-07
1.1014892e-05
1.604627e-07
9.1760826e-08
1.0783252e-05
1.4833965e-07
8.3300625e-08
1.0569851e-05
1.3734902e-07
7.6052127e-08
1.0372614e-05
1.2738864e-07
6.9848323e-08
1.0189731e-05
1.1836809e-07
6.4514842e-08
1.001963e-05
1.1020449e-07
5.9896615e-08
9.8609388e-06
1.0281923e-07
5.5871665e-08
9.7124594e-06
9.613797e-08
5.2341372e-08
9.5731439e-06
9.0091181e-08
4.9224359e-08
9.4420759e-06
8.4614446e-08
4.6453562e-08
9.3184531e-06
7.9648684e-08
4.397411e-08
9.2015723e-06
7.513969e-08
4.1741083e-08
9.0908166e-06
7.1038171e-08
3.971756e-08
8.9856431e-06
6.7301149e-08
3.7872283e-08
8.8855707e-06
6.3894265e-08
3.6178135e-08
8.7901757e-06
6.0780122e-08
3.4614953e-08
8.6990829e-06
5.7926195e-08
3.3166662e-08
8.611959e-06
5.5303686e-08
3.1820124e-08
8.5285072e-06
5.2887422e-08
3.0564394e-08
8.4484618e-06
5.0655049e-08
2.939029e-08
8.3715848e-06
4.8587046e-08
2.8290056e-08
8.2976614e-06
4.6666175e-08
2.7257214e-08
8.2264975e-06
4.4877477e-08
2.628642e-08
8.1579202e-06
4.320879e-08
2.5368528e-08
8.0917731e-06
4.1649032e-08
2.4498035e-08
8.0279107e-06
4.0186963e-08
2.3675348e-08
7.9662005e-06
3.8812672e-08
2.2897553e-08
7.9065219e-06
3.7518395e-08
2.2160234e-08
7.8487639e-06
3.6297885e-08
2.146015e-08
7.7928241e-06
3.5145158e-08
2.0794613e-08
7.7386083e-06
3.4054664e-08
2.0161173e-08
7.6860293e-06
3.3021352e-08
1.9557684e-08
7.6350062e-06
3.2040813e-08
1.8982244e-08
7.5854641e-06
3.1109029e-08
1.8433046e-08
7.537333e-06
3.022263e-08
1.790848e-08
7.4905478e-06
2.9378252e-08
1.7407006e-08
7.4450476e-06
2.8573009e-08
1.6927191e-08
7.4007755e-06
2.7804216e-08
1.6467811e-08
7.3576783e-06
2.7069589e-08
1.6027645e-08
7.3157056e-06
2.636707e-08
1.5605629e-08
7.2748103e-06
2.5694662e-08
1.5200716e-08
7.2349479e-06
2.5050564e-08
1.4811862e-08
7.1960766e-06
2.4433096e-08
1.4438176e-08
7.158157e-06
2.384069e-08
1.4078941e-08
7.1211518e-06
2.3271932e-08
1.3733311e-08
7.0850258e-06
2.2725539e-08
1.3400509e-08
7.0497456e-06
2.2200201e-08
1.3079931e-08
7.0152798e-06
2.1694894e-08
1.2770897e-08
6.9815985e-06
2.1208589e-08
1.2472767e-08
6.9486733e-06
2.0740239e-08
1.2184915e-08
6.9164775e-06
2.0288985e-08
1.1906789e-08
6.8849857e-06
1.9853919e-08
1.1637836e-08
6.8541739e-06
1.9434341e-08
1.1377458e-08
6.8240193e-06
1.9029463e-08
1.1125107e-08
6.7945006e-06
1.863853e-08
1.0880233e-08
6.7655975e-06
1.8260756e-08
1.0642308e-08
6.7372912e-06
1.7895562e-08
1.0410746e-08
6.709564e-06
1.7542094e-08
1.0185067e-08
6.6823995e-06
1.7199634e-08
9.9648342e-09
6.6557824e-06
1.686727e-08
9.749838e-09
6.6296983e-06
1.6544108e-08
9.5399533e-09
6.6041331e-06
1.6229272e-08
9.3359829e-09
6.5790714e-06
1.5922016e-08
9.1396899e-09
6.554494e-06
1.5622342e-08
8.9550999e-09
6.5303708e-06
1.5332549e-08
8.7906719e-09
6.5066467e-06
1.5060468e-08
8.6636392e-09
6.4832094e-06
1.482782e-08
8.6095126e-09
6.4598103e-06
1.4693086e-08
8.7059941e-09
6.4358387e-06
1.4826416e-08
9.145155e-09
6.4096302e-06
1.5741768e-08
1.0466728e-08
6.3782855e-06
1.8026595e-08
1.3318217e-08
3.2300214e-08
2.7923566e-08
0.00010646494
4.1872385e-06
6.4599816e-06
0.0001002019
5.695418e-06
6.6231353e-06
9.3659588e-05
5.7790388e-06
6.2744098e-06
8.7011589e-05
5.6514782e-06
6.0369387e-06
8.0422927e-05
5.3669119e-06
5.7173941e-06
7.4094022e-05
4.9022832e-06
5.3063862e-06
6.8167026e-05
4.3278135e-06
4.8516272e-06
6.2722565e-05
3.717891e-06
4.387032e-06
5.7799049e-05
3.1243144e-06
3.9337145e-06
5.3403345e-05
2.5820689e-06
3.5063329e-06
4.9517402e-05
2.1121062e-06
3.1138299e-06
4.6105482e-05
1.7220197e-06
2.7597473e-06
4.3121558e-05
1.4089355e-06
2.4437429e-06
4.0515558e-05
1.1637552e-06
2.163346e-06
3.8237948e-05
9.7485851e-07
1.9152336e-06
3.6242683e-05
8.3055973e-07
1.6959573e-06
3.4488759e-05
7.2043696e-07
1.5022849e-06
3.2940716e-05
6.3586296e-07
1.3313172e-06
3.1568463e-05
5.7005005e-07
1.1804931e-06
3.0346733e-05
5.1784898e-07
1.0475522e-06
2.9254398e-05
4.7545952e-07
9.3049033e-07
2.8273782e-05
4.4013959e-07
8.2752022e-07
2.7390054e-05
4.0994893e-07
7.370401e-07
2.6590699e-05
3.8353952e-07
6.5760855e-07
2.5865102e-05
3.5998887e-07
5.8793074e-07
2.5204197e-05
3.3867632e-07
5.2684262e-07
2.4600205e-05
3.1918361e-07
4.7330349e-07
2.4046429e-05
3.012019e-07
4.2639017e-07
2.3537073e-05
2.8455204e-07
3.8526715e-07
2.3067119e-05
2.6911102e-07
3.491824e-07
2.2632208e-05
2.547817e-07
3.1747785e-07
2.2228528e-05
2.4147383e-07
2.8959529e-07
2.1852744e-05
2.2911075e-07
2.6504123e-07
2.1501947e-05
2.1762893e-07
2.4337256e-07
2.1173591e-05
2.0696954e-07
2.2420574e-07
2.0865444e-05
1.9707565e-07
2.0720866e-07
2.0575549e-05
1.8789251e-07
1.9209398e-07
2.0302183e-05
1.7936724e-07
1.7861343e-07
2.0043829e-05
1.7144908e-07
1.6655323e-07
1.979915e-05
1.6408979e-07
1.5572943e-07
1.956696e-05
1.5724383e-07
1.4598404e-07
1.934621e-05
1.5086894e-07
1.3718219e-07
1.9135969e-05
1.4492654e-07
1.2920881e-07
1.8935407e-05
1.3937908e-07
1.2196306e-07
1.8743783e-05
1.341923e-07
1.1535763e-07
1.8560435e-05
1.2933509e-07
1.0931728e-07
1.8384766e-05
1.2477909e-07
1.0377714e-07
1.8216241e-05
1.2049851e-07
9.8681308e-08
1.8054377e-05
1.1647013e-07
9.3981312e-08
1.7898734e-05
1.1267289e-07
8.9635423e-08
1.7748917e-05
1.0908822e-07
8.5606998e-08
1.7604563e-05
1.0570003e-07
8.1862413e-08
1.7465345e-05
1.0249336e-07
7.837328e-08
1.7330962e-05
9.945299e-08
7.511699e-08
1.7201138e-05
9.6564444e-08
7.2072743e-08
1.7075619e-05
9.3816672e-08
6.9221142e-08
1.695417e-05
9.120114e-08
6.6545097e-08
1.6836577e-05
8.8709121e-08
6.4029536e-08
1.6722638e-05
8.6331957e-08
6.166104e-08
1.661217e-05
8.406177e-08
5.9427697e-08
1.6505001e-05
8.1891537e-08
5.7318796e-08
1.640097e-05
7.9814929e-08
5.5324833e-08
1.6299929e-05
7.7826176e-08
5.3437143e-08
1.620174e-05
7.591987e-08
5.1647918e-08
1.6106272e-05
7.4091034e-08
4.9950144e-08
1.6013404e-05
7.2334982e-08
4.8337419e-08
1.5923022e-05
7.0647713e-08
4.680388e-08
1.5835019e-05
6.9025746e-08
4.534427e-08
1.5749294e-05
6.7465535e-08
4.3953708e-08
1.5665753e-05
6.596379e-08
4.26277e-08
1.5584307e-05
6.4517348e-08
4.1362182e-08
1.5504871e-05
6.3123449e-08
4.0153377e-08
1.5427365e-05
6.1779337e-08
3.8997785e-08
1.5351716e-05
6.0482549e-08
3.7892299e-08
1.5277852e-05
5.9230802e-08
3.6833874e-08
1.5205705e-05
5.8021962e-08
3.5819741e-08
1.5135212e-05
5.6854004e-08
3.4847391e-08
1.5066313e-05
5.5724986e-08
3.3914352e-08
1.499895e-05
5.4633122e-08
3.3018417e-08
1.493307e-05
5.3576697e-08
3.2157424e-08
1.4868621e-05
5.2554186e-08
3.1329418e-08
1.4805554e-05
5.1563943e-08
3.0532415e-08
1.4743823e-05
5.0604448e-08
2.9764656e-08
1.4683386e-05
4.9674281e-08
2.9024384e-08
1.4624199e-05
4.8771832e-08
2.8309847e-08
1.4566226e-05
4.7895465e-08
2.7619566e-08
1.4509431e-05
4.7043532e-08
2.6951977e-08
1.4453778e-05
4.6214126e-08
2.6305786e-08
1.4399237e-05
4.5405399e-08
2.5679857e-08
1.4345777e-05
4.4615692e-08
2.5073722e-08
1.4293367e-05
4.3844272e-08
2.4487699e-08
1.4241972e-05
4.309287e-08
2.3923734e-08
1.4191548e-05
4.2369902e-08
2.3387141e-08
1.4142019e-05
4.1699293e-08
2.2889632e-08
1.4093249e-05
4.1141617e-08
2.2456626e-08
1.4044951e-05
4.084464e-08
2.214652e-08
1.3996485e-05
4.1169198e-08
2.2123007e-08
1.3946229e-05
4.3012309e-08
2.2985373e-08
1.389015e-05
4.8540236e-08
2.5565781e-08
6.3281547e-08
5.0000825e-08
0.00010603565
2.7876425e-06
6.4750379e-06
0.00010074799
4.4145413e-06
6.5685292e-06
9.5493515e-05
4.8594028e-06
6.1741158e-06
9.0256432e-05
4.930369e-06
5.9581921e-06
8.5101366e-05
4.8311767e-06
5.6908012e-06
8.0102875e-05
4.5561761e-06
5.3445981e-06
7.5322251e-05
4.1469521e-06
4.9614853e-06
7.0803266e-05
3.6678925e-06
4.5689837e-06
6.6576264e-05
3.1701903e-06
4.1811255e-06
6.2660725e-05
2.690011e-06
3.8075976e-06
5.9065443e-05
2.2519319e-06
3.4554566e-06
5.5788936e-05
1.8697304e-06
3.1287958e-06
5.2820978e-05
1.5477473e-06
2.8291458e-06
5.014479e-05
1.2836302e-06
2.5563139e-06
4.7739304e-05
1.07123e-06
2.3091141e-06
4.5581183e-05
9.0281503e-07
2.0858661e-06
4.3646423e-05
7.7048781e-07
1.884709e-06
4.1911533e-05
6.6697373e-07
1.7037793e-06
4.0354306e-05
5.8598199e-07
1.541295e-06
3.8954268e-05
5.2230223e-07
1.3955849e-06
3.769288e-05
4.7175607e-07
1.2650911e-06
3.6553576e-05
4.3107984e-07
1.1483634e-06
3.552169e-05
3.9778204e-07
1.0440533e-06
3.4584322e-05
3.6999883e-07
9.5090828e-07
3.3730181e-05
3.4635985e-07
8.6777017e-07
3.2949411e-05
3.258776e-07
7.935687e-07
3.2233419e-05
3.0784048e-07
7.2733486e-07
3.1574711e-05
2.9172983e-07
6.6818106e-07
3.0966769e-05
2.7719265e-07
6.1530127e-07
3.0403928e-05
2.63981e-07
5.6797018e-07
2.9881258e-05
2.5190846e-07
5.2554312e-07
2.9394455e-05
2.4082715e-07
4.8744999e-07
2.8939761e-05
2.306216e-07
4.5318325e-07
2.8513895e-05
2.2120153e-07
4.2229386e-07
2.8113985e-05
2.1249194e-07
3.9438674e-07
2.7737518e-05
2.0442797e-07
3.691149e-07
2.7382285e-05
1.9695192e-07
3.4617383e-07
2.7046344e-05
1.9001175e-07
3.2529678e-07
2.6727982e-05
1.8355991e-07
3.0625044e-07
2.6425689e-05
1.7755274e-07
2.8883084e-07
2.6138123e-05
1.7195002e-07
2.7285983e-07
2.5864094e-05
1.6671514e-07
2.5818184e-07
2.5602546e-05
1.6181455e-07
2.446609e-07
2.535253e-05
1.572171e-07
2.3217765e-07
2.51132e-05
1.5289443e-07
2.2062728e-07
2.4883797e-05
1.4882094e-07
2.0991771e-07
2.4663634e-05
1.4497362e-07
1.9996813e-07
2.4452094e-05
1.4133182e-07
1.9070706e-07
2.4248615e-05
1.3787696e-07
1.8207152e-07
2.405269e-05
1.3459265e-07
1.7400571e-07
2.3863854e-05
1.3146458e-07
1.6645991e-07
2.3681684e-05
1.2848059e-07
1.5938927e-07
2.3505794e-05
1.256292e-07
1.5275415e-07
2.3335829e-05
1.2289867e-07
1.4651971e-07
2.3171462e-05
1.2027636e-07
1.4065461e-07
2.3012394e-05
1.1775475e-07
1.3513021e-07
2.2858345e-05
1.1532969e-07
1.2992043e-07
2.2709057e-05
1.129954e-07
1.2500175e-07
2.2564291e-05
1.1074515e-07
1.2035287e-07
2.2423824e-05
1.0857346e-07
1.1595459e-07
2.2287451e-05
1.0647547e-07
1.1178924e-07
2.2154978e-05
1.0444699e-07
1.078408e-07
2.2026226e-05
1.0248419e-07
1.040946e-07
2.1901025e-05
1.0058351e-07
1.0053717e-07
2.1779218e-05
9.8741538e-08
9.7156133e-08
2.1660658e-05
9.6954898e-08
9.3940307e-08
2.1545205e-05
9.5221293e-08
9.087905e-08
2.1432729e-05
9.35388e-08
8.7962797e-08
2.1323107e-05
9.1905301e-08
8.5182627e-08
2.1216222e-05
9.0318529e-08
8.2530215e-08
2.1111965e-05
8.8776397e-08
7.9997898e-08
2.1010233e-05
8.7277091e-08
7.757864e-08
2.0910927e-05
8.5818984e-08
7.5265861e-08
2.0813956e-05
8.4400314e-08
7.3053431e-08
2.0719232e-05
8.3019668e-08
7.0935662e-08
2.0626671e-05
8.1675635e-08
6.8907214e-08
2.0536195e-05
8.0366817e-08
6.6963126e-08
2.0447729e-05
7.9091957e-08
6.5098788e-08
2.0361203e-05
7.7849796e-08
6.3309766e-08
2.0276548e-05
7.6639205e-08
6.1592038e-08
2.0193702e-05
7.5458981e-08
5.9941736e-08
2.0112602e-05
7.4307948e-08
5.8355214e-08
2.0033193e-05
7.3184952e-08
5.6829039e-08
1.9955419e-05
7.2088622e-08
5.5359972e-08
1.9879228e-05
7.1017646e-08
5.3944834e-08
1.9804572e-05
6.9970441e-08
5.2580696e-08
1.9731406e-05
6.8945296e-08
5.1264808e-08
1.9659685e-05
6.7940154e-08
4.9994397e-08
1.9589371e-05
6.695305e-08
4.8767014e-08
1.9520423e-05
6.5982373e-08
4.758052e-08
1.9452807e-05
6.502806e-08
4.6433099e-08
1.9386482e-05
6.4094109e-08
4.5323739e-08
1.9321404e-05
6.3194672e-08
4.4253094e-08
1.9257511e-05
6.2366337e-08
4.3225203e-08
1.9194705e-05
6.1695149e-08
4.225314e-08
1.9132798e-05
6.137407e-08
4.1377383e-08
1.9071394e-05
6.1822416e-08
4.0750658e-08
1.9009424e-05
6.3924701e-08
4.105757e-08
1.8944661e-05
6.9304668e-08
4.3998826e-08
7.9170942e-08
7.4661511e-08
0.0001054937
1.9169871e-06
6.4880407e-06
0.00010005365
3.2729596e-06
6.5816335e-06
9.4926077e-05
3.8288995e-06
6.1580776e-06
8.9946373e-05
3.9838109e-06
5.9262629e-06
8.5163276e-05
3.9595077e-06
5.6547657e-06
8.0619137e-05
3.7899368e-06
5.3103784e-06
7.6329462e-05
3.5015547e-06
4.9350725e-06
7.230016e-05
3.1412013e-06
4.5559928e-06
6.8534206e-05
2.7514802e-06
4.1846641e-06
6.5032983e-05
2.3633493e-06
3.8278853e-06
6.1795789e-05
1.9984143e-06
3.490711e-06
5.8818843e-05
1.670376e-06
3.176301e-06
5.6094717e-05
1.3858295e-06
2.886043e-06
5.3612488e-05
1.1457945e-06
2.6200649e-06
5.1358373e-05
9.476412e-07
2.3777043e-06
4.9316593e-05
7.8676784e-07
2.1578272e-06
4.7470246e-05
6.5779546e-07
1.9590391e-06
4.5802069e-05
5.5532541e-07
1.7798252e-06
4.4295042e-05
4.7437118e-07
1.6186378e-06
4.293283e-05
4.1056666e-07
1.473948e-06
4.1700078e-05
3.6023236e-07
1.3442759e-06
4.0582591e-05
3.2035743e-07
1.2282094e-06
3.956742e-05
2.8853737e-07
1.1244154e-06
3.8642881e-05
2.6289064e-07
1.0316467e-06
3.7798527e-05
2.4196983e-07
9.48744e-07
3.7025076e-05
2.2467705e-07
8.746517e-07
3.6314324e-05
2.1018902e-07
8.0840411e-07
3.5659057e-05
1.9788608e-07
7.4911041e-07
3.5052961e-05
1.8731581e-07
6.959728e-07
3.4490519e-05
1.7814872e-07
6.4827381e-07
3.3966922e-05
1.7013169e-07
6.0537437e-07
3.3477973e-05
1.6306725e-07
5.6670866e-07
3.3020016e-05
1.5680296e-07
5.3177542e-07
3.2589865e-05
1.5122054e-07
5.0013245e-07
3.218474e-05
1.4622561e-07
4.7139137e-07
3.1802215e-05
1.4174072e-07
4.4521231e-07
3.1440168e-05
1.3770094e-07
4.2129806e-07
3.1096739e-05
1.3405091e-07
3.9938921e-07
3.0770297e-05
1.3074293e-07
3.7925953e-07
3.0459402e-05
1.2773517e-07
3.6071196e-07
3.0162787e-05
1.2499091e-07
3.4357476e-07
2.9879325e-05
1.2247785e-07
3.2769852e-07
2.960802e-05
1.2016735e-07
3.1295271e-07
2.934798e-05
1.1803382e-07
2.9922353e-07
2.9098408e-05
1.1605461e-07
2.8641138e-07
2.885859e-05
1.1420981e-07
2.7442904e-07
2.8627882e-05
1.1248192e-07
2.6320001e-07
2.8405701e-05
1.1085557e-07
2.5265687e-07
2.819152e-05
1.0931756e-07
2.4274024e-07
2.7984859e-05
1.0785648e-07
2.3339757e-07
2.7785279e-05
1.0646277e-07
2.2458212e-07
2.7592378e-05
1.051287e-07
2.1625217e-07
2.740579e-05
1.0384734e-07
2.0837034e-07
2.7225174e-05
1.0261118e-07
2.0090362e-07
2.705022e-05
1.0140742e-07
1.9382259e-07
2.6880641e-05
1.0023381e-07
1.8710042e-07
2.6716166e-05
9.9092355e-08
1.8071227e-07
2.6556546e-05
9.7979995e-08
1.7463556e-07
2.6401548e-05
9.6892513e-08
1.6885015e-07
2.6250957e-05
9.5827062e-08
1.6333745e-07
2.610457e-05
9.4781681e-08
1.5808045e-07
2.5962199e-05
9.3754702e-08
1.5306363e-07
2.5823666e-05
9.2744869e-08
1.4827259e-07
2.5688804e-05
9.1751027e-08
1.4369413e-07
2.5557458e-05
9.0771764e-08
1.3931599e-07
2.5429481e-05
8.9805171e-08
1.3512695e-07
2.5304734e-05
8.8851457e-08
1.3111646e-07
2.5183087e-05
8.7911204e-08
1.2727469e-07
2.5064416e-05
8.6983926e-08
1.2359241e-07
2.4948604e-05
8.6068899e-08
1.2006117e-07
2.4835542e-05
8.5165803e-08
1.1667301e-07
2.4725124e-05
8.4274353e-08
1.1342048e-07
2.4617252e-05
8.3394292e-08
1.1029656e-07
2.4511832e-05
8.2525485e-08
1.0729479e-07
2.4408775e-05
8.1667759e-08
1.0440898e-07
2.4307997e-05
8.0820995e-08
1.0163343e-07
2.4209416e-05
7.9985007e-08
9.8962639e-08
2.4112956e-05
7.9159752e-08
9.6391548e-08
2.4018546e-05
7.8345014e-08
9.3915312e-08
2.3926115e-05
7.7540723e-08
9.1529329e-08
2.3835598e-05
7.6746562e-08
8.9229265e-08
2.3746933e-05
7.5962306e-08
8.7011053e-08
2.366006e-05
7.518763e-08
8.4870727e-08
2.3574922e-05
7.442198e-08
8.2804541e-08
2.3491466e-05
7.366465e-08
8.0808914e-08
2.3409641e-05
7.2914632e-08
7.8880358e-08
2.33294e-05
7.21707e-08
7.7015527e-08
2.3250698e-05
7.1431334e-08
7.521102e-08
2.3173493e-05
7.0694877e-08
7.3463629e-08
2.3097745e-05
6.996021e-08
7.1770086e-08
2.3023418e-05
6.9227976e-08
7.0126989e-08
2.2950477e-05
6.8503505e-08
6.8531191e-08
2.2878889e-05
6.7802884e-08
6.6979703e-08
2.2808619e-05
6.716505e-08
6.5471564e-08
2.2739625e-05
6.6675256e-08
6.401336e-08
2.267185e-05
6.6507063e-08
6.2642317e-08
2.2605149e-05
6.6990729e-08
6.1532363e-08
2.2538888e-05
6.8686014e-08
6.1499901e-08
2.2471121e-05
7.2226955e-08
6.484511e-08
7.6722866e-08
9.8461319e-08
0.0001051979
1.3340884e-06
6.4961221e-06
9.9496561e-05
2.3731022e-06
6.6011947e-06
9.4262459e-05
2.9019223e-06
6.1610799e-06
8.9251186e-05
3.0856641e-06
5.9094196e-06
8.4493498e-05
3.0947347e-06
5.6224614e-06
8.0033635e-05
2.9846656e-06
5.2651341e-06
7.5876907e-05
2.7790155e-06
4.8792667e-06
7.2014635e-05
2.5106843e-06
4.4927895e-06
6.8436293e-05
2.2128729e-06
4.1169489e-06
6.5131387e-05
1.9107259e-06
3.7575291e-06
6.208941e-05
1.6217321e-06
3.4186596e-06
5.9299432e-05
1.3573878e-06
3.1029661e-06
5.6749589e-05
1.1240344e-06
2.8116386e-06
5.4426788e-05
9.2377947e-07
2.5448158e-06
5.2316754e-05
7.5572799e-07
2.3019466e-06
5.0404313e-05
6.1717855e-07
2.0820302e-06
4.8673788e-05
5.045435e-07
1.8837772e-06
4.7109414e-05
4.1397181e-07
1.7057274e-06
4.5695713e-05
3.4173648e-07
1.5463363e-06
4.4417792e-05
2.8445146e-07
1.4040359e-06
4.3261575e-05
2.3917116e-07
1.2772781e-06
4.2213952e-05
2.0341502e-07
1.1645652e-06
4.1262871e-05
1.7514742e-07
1.0644718e-06
4.039737e-05
1.5273233e-07
9.7565897e-07
3.9607583e-05
1.348753e-07
8.9688144e-07
3.8884688e-05
1.2055568e-07
8.2701639e-07
3.8220848e-05
1.0901093e-07
7.6501855e-07
3.7609155e-05
9.9633823e-08
7.0994484e-07
3.7043542e-05
9.1977425e-08
6.6095087e-07
3.6518702e-05
8.5705805e-08
6.1728287e-07
3.6030009e-05
8.0552391e-08
5.7827306e-07
3.5573433e-05
7.6308274e-08
5.4333412e-07
3.5145475e-05
7.2811251e-08
5.1195027e-07
3.4743091e-05
6.9934143e-08
4.8367024e-07
3.4363641e-05
6.7575455e-08
4.5810066e-07
3.4004828e-05
6.5652855e-08
4.3489996e-07
3.3664659e-05
6.4098582e-08
4.1377211e-07
3.3341393e-05
6.2855923e-08
3.9446093e-07
3.3033513e-05
6.1877021e-08
3.7674531e-07
3.2739693e-05
6.112109e-08
3.6043421e-07
3.2458768e-05
6.0553053e-08
3.4536328e-07
3.2189712e-05
6.014265e-08
3.3139056e-07
3.1931622e-05
5.9863657e-08
3.1839378e-07
3.1683696e-05
5.9693113e-08
3.0626734e-07
3.1445219e-05
5.9611187e-08
2.9492011e-07
3.1215555e-05
5.9600633e-08
2.8427312e-07
3.0994132e-05
5.9646511e-08
2.7425807e-07
3.0780436e-05
5.9736175e-08
2.648154e-07
3.0574002e-05
5.9858656e-08
2.5589332e-07
3.0374407e-05
6.0004916e-08
2.4744661e-07
3.0181267e-05
6.0167629e-08
2.3943548e-07
2.9994229e-05
6.0341241e-08
2.3182489e-07
2.9812971e-05
6.05218e-08
2.2458373e-07
2.9637193e-05
6.0704475e-08
2.1768455e-07
2.9466629e-05
6.0867301e-08
2.111046e-07
2.9301024e-05
6.1016985e-08
2.0482181e-07
2.914014e-05
6.1160874e-08
1.988157e-07
2.8983756e-05
6.1294917e-08
1.9306841e-07
2.8831669e-05
6.1415454e-08
1.8756389e-07
2.8683688e-05
6.1520904e-08
1.8228765e-07
2.8539633e-05
6.1610545e-08
1.7722633e-07
2.8399336e-05
6.168378e-08
1.7236784e-07
2.8262639e-05
6.174047e-08
1.6770089e-07
2.8129394e-05
6.1780691e-08
1.6321523e-07
2.7999461e-05
6.1803892e-08
1.5890122e-07
2.7872709e-05
6.1807356e-08
1.5475035e-07
2.7749012e-05
6.1793572e-08
1.5075442e-07
2.7628253e-05
6.1764816e-08
1.4690555e-07
2.7510319e-05
6.1720997e-08
1.4319662e-07
2.7395105e-05
6.1662101e-08
1.3962084e-07
2.728251e-05
6.158862e-08
1.3617199e-07
2.7172439e-05
6.150106e-08
1.3284422e-07
2.7064802e-05
6.1399967e-08
1.2963194e-07
2.6959511e-05
6.1285936e-08
1.2652993e-07
2.6856486e-05
6.1159536e-08
1.2353329e-07
2.6755649e-05
6.1021296e-08
1.206373e-07
2.6656924e-05
6.0871871e-08
1.1783767e-07
2.6560242e-05
6.0711709e-08
1.1513013e-07
2.6465535e-05
6.0541389e-08
1.1251077e-07
2.6372738e-05
6.0361364e-08
1.0997579e-07
2.6281791e-05
6.0171945e-08
1.0752156e-07
2.6192636e-05
5.9973536e-08
1.051447e-07
2.6105215e-05
5.9766334e-08
1.0284184e-07
2.6019477e-05
5.9550271e-08
1.0060974e-07
2.5935371e-05
5.9325151e-08
9.8445269e-08
2.585285e-05
5.9090499e-08
9.6345408e-08
2.5771868e-05
5.8845478e-08
9.4306933e-08
2.5692384e-05
5.8588977e-08
9.232675e-08
2.5614357e-05
5.8319802e-08
9.0401432e-08
2.5537753e-05
5.8037067e-08
8.8527344e-08
2.5462539e-05
5.7741659e-08
8.6700206e-08
2.5388689e-05
5.7438436e-08
8.4915172e-08
2.5316184e-05
5.714143e-08
8.316662e-08
2.5245017e-05
5.6882595e-08
8.1449638e-08
2.51752e-05
5.6726039e-08
7.9765807e-08
2.510677e-05
5.6787919e-08
7.8149176e-08
2.5039729e-05
5.7251595e-08
7.6780986e-08
2.4973573e-05
5.8330911e-08
7.6510209e-08
2.4906079e-05
5.9989476e-08
7.9732198e-08
6.0715013e-08
1.1287824e-07
0.00010503672
9.0789372e-07
6.5005614e-06
9.9140653e-05
1.6524914e-06
6.6166802e-06
9.3788329e-05
2.0825241e-06
6.1717217e-06
8.8708526e-05
2.2549373e-06
5.91053e-06
8.3909682e-05
2.278404e-06
5.6151748e-06
7.9437109e-05
2.2074821e-06
5.2497564e-06
7.5296201e-05
2.0645348e-06
4.8553893e-06
7.1474034e-05
1.8722543e-06
4.460597e-06
6.7955013e-05
1.6547667e-06
4.0771269e-06
6.4723621e-05
1.4313505e-06
3.7107669e-06
6.1764423e-05
1.2154298e-06
3.3655007e-06
5.9062056e-05
1.015864e-06
3.0438911e-06
5.6601108e-05
8.378274e-07
2.7471548e-06
5.4365944e-05
6.8344647e-07
2.475497e-06
5.2340648e-05
5.5258528e-07
2.2284383e-06
5.0509125e-05
4.4366548e-07
2.0050361e-06
4.8855299e-05
3.5433456e-07
1.8040352e-06
4.7363353e-05
2.8193592e-07
1.6239821e-06
4.6017963e-05
2.2381348e-07
1.4633127e-06
4.4804502e-05
1.7749379e-07
1.3204181e-06
4.3709199e-05
1.4078089e-07
1.1936935e-06
4.2719248e-05
1.1179155e-07
1.081575e-06
4.1822875e-05
8.8954533e-08
9.8256585e-07
4.1009364e-05
7.0987993e-08
8.9525473e-07
4.0269054e-05
5.6861824e-08
8.1832383e-07
3.9593306e-05
4.5719106e-08
7.5058476e-07
3.8974405e-05
3.697786e-08
6.9093439e-07
3.8405585e-05
3.0067369e-08
6.3838629e-07
3.7880869e-05
2.4650851e-08
5.9204238e-07
3.7395029e-05
2.0439993e-08
5.5110604e-07
3.6943514e-05
1.7190275e-08
5.1487712e-07
3.6522366e-05
1.471674e-08
4.8273956e-07
3.6128148e-05
1.2874766e-08
4.5415388e-07
3.5757883e-05
1.1549863e-08
4.2864944e-07
3.5408991e-05
1.0650759e-08
4.0581704e-07
3.5079238e-05
1.0103614e-08
3.8530226e-07
3.4766689e-05
9.8482574e-09
3.6679878e-07
3.4469668e-05
9.8351075e-09
3.5004234e-07
3.4186716e-05
1.0022926e-08
3.3480553e-07
3.3916567e-05
1.0377036e-08
3.2089286e-07
3.3658116e-05
1.0868074e-08
3.0813657e-07
3.3410395e-05
1.1471001e-08
2.9639285e-07
3.3172556e-05
1.2164233e-08
2.8553826e-07
3.2943852e-05
1.2929301e-08
2.7546719e-07
3.2723625e-05
1.3750167e-08
2.6608895e-07
3.2511286e-05
1.4613092e-08
2.573257e-07
3.2306316e-05
1.5506251e-08
2.4911069e-07
3.2108246e-05
1.6419576e-08
2.4138622e-07
3.1916658e-05
1.7344664e-08
2.341027e-07
3.1731171e-05
1.8274311e-08
2.2721712e-07
3.1551444e-05
1.9203157e-08
2.2069216e-07
3.1377162e-05
2.0127707e-08
2.144951e-07
3.1208038e-05
2.1048652e-08
2.085968e-07
3.10438e-05
2.1972784e-08
2.0297052e-07
3.0884232e-05
2.2827874e-08
1.976074e-07
3.0729103e-05
2.3662956e-08
1.9248228e-07
3.05782e-05
2.4490003e-08
1.875738e-07
3.0431331e-05
2.5296266e-08
1.8286762e-07
3.0288318e-05
2.6077958e-08
1.7835075e-07
3.0148994e-05
2.6834296e-08
1.7401109e-07
3.0013202e-05
2.7564696e-08
1.6983753e-07
2.9880797e-05
2.8268948e-08
1.6582023e-07
2.975164e-05
2.894742e-08
1.6195014e-07
2.96256e-05
2.9600776e-08
1.5821899e-07
2.9502557e-05
3.0228541e-08
1.5461919e-07
2.9382396e-05
3.0823592e-08
1.5114464e-07
2.9265007e-05
3.1393117e-08
1.4778876e-07
2.9150287e-05
3.1939599e-08
1.4454539e-07
2.9038137e-05
3.2461878e-08
1.4140902e-07
2.8928465e-05
3.2960077e-08
1.3837463e-07
2.8821181e-05
3.3434688e-08
1.3543753e-07
2.8716203e-05
3.3886351e-08
1.3259332e-07
2.8613449e-05
3.4315506e-08
1.2983787e-07
2.8512845e-05
3.4722857e-08
1.2716736e-07
2.8414317e-05
3.510898e-08
1.2457814e-07
2.8317797e-05
3.5474423e-08
1.2206682e-07
2.8223219e-05
3.581987e-08
1.1963007e-07
2.813052e-05
3.6145906e-08
1.1726492e-07
2.803964e-05
3.6453091e-08
1.1496839e-07
2.7950522e-05
3.6741893e-08
1.1273774e-07
2.7863111e-05
3.7012825e-08
1.1057028e-07
2.7777355e-05
3.726626e-08
1.0846343e-07
2.7693204e-05
3.7502471e-08
1.0641474e-07
2.761061e-05
3.7721631e-08
1.0442174e-07
2.752953e-05
3.7923567e-08
1.0248201e-07
2.7449919e-05
3.8107993e-08
1.0059308e-07
2.7371738e-05
3.8274277e-08
9.8752302e-08
2.7294949e-05
3.8421527e-08
9.6956902e-08
2.7219516e-05
3.8548726e-08
9.5203603e-08
2.714541e-05
3.8655127e-08
9.3488604e-08
2.7072603e-05
3.8741137e-08
9.1806937e-08
2.7001079e-05
3.8810251e-08
9.0152323e-08
2.6930832e-05
3.887216e-08
8.8516575e-08
2.6861876e-05
3.8947387e-08
8.6890555e-08
2.679426e-05
3.9073517e-08
8.5269157e-08
2.6728065e-05
3.9306927e-08
8.3675904e-08
2.6663337e-05
3.9708336e-08
8.2271169e-08
2.659956e-05
4.0271976e-08
8.1836198e-08
2.6534295e-05
4.0698019e-08
8.4555735e-08
3.962086e-08
1.1507132e-07
0.00010494757
5.681108e-07
6.5033076e-06
9.8925416e-05
1.0462983e-06
6.6283517e-06
9.3480449e-05
1.3439844e-06
6.1835065e-06
8.8341777e-05
1.4751323e-06
5.9184763e-06
8.3502084e-05
1.4993911e-06
5.6187065e-06
7.9004057e-05
1.4572411e-06
5.2482679e-06
7.4853978e-05
1.3667382e-06
4.8478757e-06
7.1037378e-05
1.2423973e-06
4.4464569e-06
6.7536063e-05
1.0997693e-06
4.0563128e-06
6.4331998e-05
9.5192358e-07
3.683491e-06
6.1407318e-05
8.0805755e-07
3.3320524e-06
5.8744339e-05
6.7422203e-07
3.0046209e-06
5.6325632e-05
5.5404398e-07
2.7024907e-06
5.4133973e-05
4.4916748e-07
2.4259383e-06
5.2152298e-05
3.5972402e-07
2.174536e-06
5.0363747e-05
2.8484511e-07
1.9473718e-06
4.875178e-05
2.2310005e-07
1.7432015e-06
4.7300339e-05
1.7281168e-07
1.5605647e-06
4.5994012e-05
1.3226571e-07
1.3978748e-06
4.4818177e-05
9.9840037e-08
1.2534891e-06
4.3759121e-05
7.4075606e-08
1.1257614e-06
4.2804123e-05
5.3707639e-08
1.0130814e-06
4.1941503e-05
3.7671203e-08
9.1390376e-07
4.1160627e-05
2.5096473e-08
8.2676732e-07
4.0451891e-05
1.5294154e-08
7.5030388e-07
3.980679e-05
7.5281877e-09
6.8329174e-07
3.9217543e-05
1.6727757e-09
6.2455202e-07
3.8677513e-05
-3.0330872e-09
5.731308e-07
3.8180739e-05
-6.6486713e-09
5.2807353e-07
3.7722004e-05
-9.3594987e-09
4.885345e-07
3.7296777e-05
-1.1371785e-08
4.5378925e-07
3.6901112e-05
-1.2818249e-08
4.231991e-07
3.6531588e-05
-1.3805331e-08
3.9620479e-07
3.6185236e-05
-1.4417486e-08
3.7231876e-07
3.5859491e-05
-1.4721913e-08
3.5111775e-07
3.5552132e-05
-1.4772645e-08
3.3223579e-07
3.5261237e-05
-1.4613927e-08
3.1535726e-07
3.4985143e-05
-1.4282158e-08
3.0021089e-07
3.472241e-05
-1.3807693e-08
2.8656375e-07
3.4471787e-05
-1.3215877e-08
2.7421628e-07
3.4232185e-05
-1.2528172e-08
2.6299767e-07
3.4002657e-05
-1.1762789e-08
2.5276174e-07
3.3782373e-05
-1.0935231e-08
2.4338336e-07
3.3570606e-05
-1.0058744e-08
2.3475557e-07
3.3366714e-05
-9.1447099e-09
2.2678674e-07
3.3170131e-05
-8.2028306e-09
2.1939831e-07
3.2980356e-05
-7.2412244e-09
2.1252299e-07
3.279694e-05
-6.2668953e-09
2.0610282e-07
3.2619482e-05
-5.285557e-09
2.0008782e-07
3.2447623e-05
-4.301825e-09
1.944348e-07
3.228104e-05
-3.3190457e-09
1.8910586e-07
3.2119438e-05
-2.3383221e-09
1.8406734e-07
3.1962554e-05
-1.3530526e-09
1.7928645e-07
3.1810075e-05
-2.7630982e-10
1.7472763e-07
3.1661878e-05
5.8583845e-10
1.7043904e-07
3.1517732e-05
1.4356219e-09
1.6637295e-07
3.1377429e-05
2.3038372e-09
1.624896e-07
3.1240792e-05
3.1586054e-09
1.5877485e-07
3.1107656e-05
3.9969838e-09
1.552172e-07
3.0977867e-05
4.8171991e-09
1.5180547e-07
3.0851284e-05
5.6179411e-09
1.4852964e-07
3.0727773e-05
6.3989948e-09
1.4538078e-07
3.0607209e-05
7.1609206e-09
1.4235054e-07
3.0489473e-05
7.9059104e-09
1.3943121e-07
3.037445e-05
8.6357252e-09
1.366158e-07
3.0262049e-05
9.3206531e-09
1.3390395e-07
3.0152163e-05
9.9937975e-09
1.3128563e-07
3.0044697e-05
1.0650383e-08
1.2875515e-07
2.9939564e-05
1.128675e-08
1.2630829e-07
2.983668e-05
1.1903195e-08
1.2394086e-07
2.9735965e-05
1.2500157e-08
1.2164885e-07
2.9637345e-05
1.3077862e-08
1.1942843e-07
2.9540748e-05
1.3636728e-08
1.1727617e-07
2.9446105e-05
1.4177017e-08
1.1518882e-07
2.9353352e-05
1.4699175e-08
1.1316338e-07
2.9262425e-05
1.5203533e-08
1.1119703e-07
2.9173268e-05
1.5690499e-08
1.0928706e-07
2.9085822e-05
1.6160368e-08
1.0743106e-07
2.9000035e-05
1.6613594e-08
1.0562663e-07
2.8915855e-05
1.7050375e-08
1.0387153e-07
2.8833233e-05
1.7471108e-08
1.0216362e-07
2.8752123e-05
1.7875983e-08
1.0050083e-07
2.8672479e-05
1.8265124e-08
9.888113e-08
2.8594259e-05
1.8638574e-08
9.7302467e-08
2.8517424e-05
1.899624e-08
9.576293e-08
2.8441934e-05
1.9337776e-08
9.4260336e-08
2.8367753e-05
1.966279e-08
9.279235e-08
2.8294848e-05
1.9970494e-08
9.1356301e-08
2.8223187e-05
2.0259977e-08
8.9948846e-08
2.8152746e-05
2.0530688e-08
8.8565885e-08
2.8083503e-05
2.0782593e-08
8.720178e-08
2.8015447e-05
2.1017526e-08
8.5848704e-08
2.7948582e-05
2.1240704e-08
8.4495851e-08
2.7882937e-05
2.1462724e-08
8.312953e-08
2.7818574e-05
2.1699953e-08
8.1736504e-08
2.7755588e-05
2.1969274e-08
8.0324341e-08
2.7694014e-05
2.2266157e-08
7.9016065e-08
2.7633299e-05
2.2506285e-08
7.8480687e-08
2.7571004e-05
2.2393407e-08
8.0599464e-08
2.0993095e-08
1.0779944e-07
0.00010489986
2.7443375e-07
6.5049155e-06
9.8802772e-05
5.0716633e-07
6.6362236e-06
9.329591e-05
6.5854973e-07
6.1922972e-06
8.8116302e-05
7.2902547e-07
5.9257148e-06
8.3248198e-05
7.4378814e-07