/*--------------------------------*- C++ -*----------------------------------*\
  =========                 |
  \\      /  F ield         | OpenFOAM: The Open Source CFD Toolbox
   \\    /   O peration     | Website:  https://openfoam.org
    \\  /    A nd           | Version:  7
     \\/     M anipulation  |
\*---------------------------------------------------------------------------*/
FoamFile
{
    version     2.0;
    format      ascii;
    class       surfaceScalarField;
    location    "150/water";
    object      phi;
}
// * * * * * * * * * * * * * * * * * * * * * * * * * * * * * * * * * * * * * //

dimensions      [1 0 -1 0 0 0 0];

internalField   nonuniform List<scalar> 
156660
(
9.9057239e-05
6.0010402e-06
6.0528092e-06
8.6847497e-05
6.0555113e-06
6.1542307e-06
7.5687891e-05
5.5111363e-06
5.6484701e-06
6.5441704e-05
5.0404181e-06
5.2057689e-06
5.6267661e-05
4.4956436e-06
4.6783991e-06
4.8318019e-05
3.8797648e-06
4.0698777e-06
4.1624776e-05
3.2524448e-06
3.4407981e-06
3.6124897e-05
2.660462e-06
2.839417e-06
3.1692235e-05
2.1345127e-06
2.2981489e-06
2.8162841e-05
1.6926975e-06
1.8366964e-06
2.5361437e-05
1.3399933e-06
1.4614113e-06
2.3124664e-05
1.0698477e-06
1.1669256e-06
2.1315127e-05
8.6875419e-07
9.4078224e-07
1.9825714e-05
7.2110064e-07
7.6831275e-07
1.8577278e-05
6.1248246e-07
6.3595309e-07
1.7513255e-05
5.3125221e-07
5.3277149e-07
1.6593744e-05
4.6879724e-07
4.5071347e-07
1.5790433e-05
4.1913717e-07
3.8417384e-07
1.5082784e-05
3.7829068e-07
3.2935849e-07
1.4455417e-05
3.4367125e-07
2.8369563e-07
1.3896409e-05
3.1361408e-07
2.4539335e-07
1.339622e-05
2.8704447e-07
2.1314451e-07
1.2947015e-05
2.6326031e-07
1.859451e-07
1.2542237e-05
2.4179367e-07
1.6298459e-07
1.2176318e-05
2.2232206e-07
1.4359689e-07
1.1844484e-05
2.0461479e-07
1.2721879e-07
1.1542609e-05
1.8849493e-07
1.133797e-07
1.1267116e-05
1.7381574e-07
1.0167793e-07
1.1014892e-05
1.6046273e-07
9.1760826e-08
1.0783252e-05
1.4833967e-07
8.3300591e-08
1.0569851e-05
1.3734904e-07
7.6052128e-08
1.0372614e-05
1.2738863e-07
6.9848332e-08
1.0189731e-05
1.1836808e-07
6.4514847e-08
1.001963e-05
1.1020447e-07
5.9896634e-08
9.8609388e-06
1.0281922e-07
5.5871651e-08
9.7124594e-06
9.6137974e-08
5.2341397e-08
9.5731439e-06
9.0091179e-08
4.9224352e-08
9.4420759e-06
8.4614465e-08
4.6453594e-08
9.3184531e-06
7.9648653e-08
4.3974098e-08
9.2015723e-06
7.5139706e-08
4.1741052e-08
9.0908166e-06
7.1038154e-08
3.971756e-08
8.9856432e-06
6.7301105e-08
3.78723e-08
8.8855708e-06
6.3894237e-08
3.6178183e-08
8.7901757e-06
6.078009e-08
3.4614973e-08
8.6990829e-06
5.7926181e-08
3.3166663e-08
8.611959e-06
5.5303731e-08
3.1820147e-08
8.5285072e-06
5.2887444e-08
3.0564436e-08
8.4484619e-06
5.0655091e-08
2.9390268e-08
8.3715848e-06
4.858705e-08
2.8289992e-08
8.2976614e-06
4.6666166e-08
2.7257205e-08
8.2264975e-06
4.4877463e-08
2.628643e-08
8.1579202e-06
4.3208763e-08
2.5368548e-08
8.0917731e-06
4.1649055e-08
2.4498028e-08
8.0279108e-06
4.0186981e-08
2.3675374e-08
7.9662005e-06
3.8812692e-08
2.2897546e-08
7.9065219e-06
3.7518387e-08
2.2160254e-08
7.8487639e-06
3.6297851e-08
2.1460155e-08
7.7928241e-06
3.514516e-08
2.0794586e-08
7.7386083e-06
3.4054672e-08
2.0161139e-08
7.6860293e-06
3.3021351e-08
1.9557649e-08
7.6350063e-06
3.2040797e-08
1.8982252e-08
7.5854642e-06
3.1109056e-08
1.8433065e-08
7.5373331e-06
3.0222623e-08
1.7908465e-08
7.4905478e-06
2.9378279e-08
1.7406976e-08
7.4450477e-06
2.8573012e-08
1.692716e-08
7.4007757e-06
2.7804233e-08
1.646778e-08
7.3576784e-06
2.7069608e-08
1.6027636e-08
7.3157057e-06
2.6367067e-08
1.5605628e-08
7.2748104e-06
2.5694649e-08
1.520067e-08
7.234948e-06
2.505056e-08
1.4811812e-08
7.1960767e-06
2.4433095e-08
1.4438155e-08
7.1581571e-06
2.3840693e-08
1.4078923e-08
7.1211519e-06
2.3271948e-08
1.3733261e-08
7.0850258e-06
2.272552e-08
1.3400521e-08
7.0497457e-06
2.2200247e-08
1.3079929e-08
7.0152798e-06
2.1694947e-08
1.2770901e-08
6.9815984e-06
2.1208625e-08
1.2472777e-08
6.9486733e-06
2.0740292e-08
1.2184926e-08
6.9164774e-06
2.0289021e-08
1.1906811e-08
6.8849856e-06
1.9853945e-08
1.1637863e-08
6.8541737e-06
1.9434373e-08
1.1377476e-08
6.8240191e-06
1.9029486e-08
1.1125111e-08
6.7945004e-06
1.8638525e-08
1.0880262e-08
6.7655973e-06
1.8260764e-08
1.0642302e-08
6.7372909e-06
1.7895549e-08
1.0410751e-08
6.7095637e-06
1.754211e-08
1.0185109e-08
6.6823992e-06
1.7199644e-08
9.9648853e-09
6.6557821e-06
1.6867286e-08
9.7498067e-09
6.629698e-06
1.6544088e-08
9.5399746e-09
6.6041327e-06
1.6229228e-08
9.3359929e-09
6.5790711e-06
1.5921949e-08
9.1396967e-09
6.5544937e-06
1.5622281e-08
8.9550748e-09
6.5303705e-06
1.533253e-08
8.7906437e-09
6.5066465e-06
1.5060412e-08
8.663582e-09
6.4832093e-06
1.4827779e-08
8.6095019e-09
6.4598102e-06
1.4693064e-08
8.7059755e-09
6.4358388e-06
1.4826375e-08
9.145134e-09
6.4096303e-06
1.574171e-08
1.0466706e-08
6.3782856e-06
1.8026525e-08
1.3318172e-08
3.2300139e-08
2.7923424e-08
0.00010646494
4.1872385e-06
6.4599816e-06
0.0001002019
5.695418e-06
6.6231353e-06
9.3659588e-05
5.7790389e-06
6.2744098e-06
8.7011589e-05
5.6514782e-06
6.0369387e-06
8.0422927e-05
5.3669119e-06
5.7173941e-06
7.4094022e-05
4.9022832e-06
5.3063862e-06
6.8167026e-05
4.3278136e-06
4.8516272e-06
6.2722565e-05
3.717891e-06
4.387032e-06
5.7799049e-05
3.1243143e-06
3.9337144e-06
5.3403345e-05
2.5820689e-06
3.5063328e-06
4.9517402e-05
2.1121062e-06
3.1138299e-06
4.6105482e-05
1.7220197e-06
2.7597473e-06
4.3121558e-05
1.4089355e-06
2.4437429e-06
4.0515558e-05
1.1637552e-06
2.163346e-06
3.8237948e-05
9.7485851e-07
1.9152336e-06
3.6242683e-05
8.3055973e-07
1.6959573e-06
3.4488759e-05
7.2043694e-07
1.5022849e-06
3.2940716e-05
6.3586297e-07
1.3313172e-06
3.1568463e-05
5.7005007e-07
1.1804931e-06
3.0346733e-05
5.1784896e-07
1.0475522e-06
2.9254398e-05
4.7545954e-07
9.3049032e-07
2.8273782e-05
4.401396e-07
8.2752023e-07
2.7390054e-05
4.0994893e-07
7.3704005e-07
2.6590699e-05
3.8353954e-07
6.5760854e-07
2.5865102e-05
3.5998887e-07
5.8793071e-07
2.5204198e-05
3.3867632e-07
5.2684261e-07
2.4600205e-05
3.1918358e-07
4.7330349e-07
2.4046429e-05
3.0120193e-07
4.263902e-07
2.3537073e-05
2.8455208e-07
3.8526715e-07
2.3067119e-05
2.6911101e-07
3.4918237e-07
2.2632208e-05
2.5478167e-07
3.1747785e-07
2.2228528e-05
2.4147383e-07
2.8959532e-07
2.1852744e-05
2.2911073e-07
2.6504126e-07
2.1501947e-05
2.1762892e-07
2.4337258e-07
2.1173591e-05
2.0696954e-07
2.2420571e-07
2.0865444e-05
1.9707567e-07
2.0720868e-07
2.0575549e-05
1.8789254e-07
1.9209396e-07
2.0302183e-05
1.7936722e-07
1.7861343e-07
2.0043829e-05
1.7144908e-07
1.6655322e-07
1.979915e-05
1.6408981e-07
1.557294e-07
1.956696e-05
1.572438e-07
1.4598404e-07
1.934621e-05
1.5086892e-07
1.3718217e-07
1.9135969e-05
1.4492653e-07
1.2920881e-07
1.8935407e-05
1.3937909e-07
1.2196307e-07
1.8743783e-05
1.3419232e-07
1.1535763e-07
1.8560435e-05
1.293351e-07
1.0931729e-07
1.8384766e-05
1.2477908e-07
1.0377716e-07
1.8216241e-05
1.2049852e-07
9.8681282e-08
1.8054377e-05
1.1647013e-07
9.3981314e-08
1.7898734e-05
1.1267292e-07
8.96354e-08
1.7748917e-05
1.0908821e-07
8.5607018e-08
1.7604563e-05
1.0570005e-07
8.1862438e-08
1.7465345e-05
1.0249338e-07
7.8373279e-08
1.7330962e-05
9.9452994e-08
7.5116997e-08
1.7201138e-05
9.6564395e-08
7.207274e-08
1.7075619e-05
9.3816666e-08
6.9221158e-08
1.695417e-05
9.1201118e-08
6.6545114e-08
1.6836577e-05
8.87091e-08
6.4029531e-08
1.6722638e-05
8.633195e-08
6.1661077e-08
1.661217e-05
8.4061776e-08
5.9427701e-08
1.6505001e-05
8.1891516e-08
5.7318808e-08
1.640097e-05
7.9814934e-08
5.5324826e-08
1.6299929e-05
7.7826208e-08
5.3437113e-08
1.620174e-05
7.5919879e-08
5.1647898e-08
1.6106272e-05
7.4091043e-08
4.9950094e-08
1.6013404e-05
7.2334999e-08
4.8337383e-08
1.5923022e-05
7.0647719e-08
4.6803847e-08
1.5835019e-05
6.902573e-08
4.5344251e-08
1.5749294e-05
6.7465537e-08
4.3953675e-08
1.5665753e-05
6.5963786e-08
4.2627676e-08
1.5584307e-05
6.4517393e-08
4.1362113e-08
1.5504871e-05
6.3123471e-08
4.0153324e-08
1.5427365e-05
6.1779329e-08
3.8997757e-08
1.5351716e-05
6.0482586e-08
3.7892276e-08
1.5277852e-05
5.9230877e-08
3.6833855e-08
1.5205705e-05
5.8022033e-08
3.5819732e-08
1.5135212e-05
5.6854067e-08
3.4847381e-08
1.5066313e-05
5.572505e-08
3.3914349e-08
1.499895e-05
5.463321e-08
3.3018415e-08
1.493307e-05
5.3576778e-08
3.2157441e-08
1.4868621e-05
5.2554246e-08
3.1329416e-08
1.4805554e-05
5.1563952e-08
3.0532429e-08
1.4743823e-05
5.0604521e-08
2.9764692e-08
1.4683385e-05
4.9674306e-08
2.9024386e-08
1.4624199e-05
4.8771831e-08
2.8309899e-08
1.4566226e-05
4.789545e-08
2.7619588e-08
1.450943e-05
4.7043476e-08
2.6951989e-08
1.4453778e-05
4.6214069e-08
2.6305782e-08
1.4399237e-05
4.540536e-08
2.5679875e-08
1.4345776e-05
4.4615611e-08
2.507375e-08
1.4293367e-05
4.3844159e-08
2.4487671e-08
1.4241972e-05
4.3092789e-08
2.3923711e-08
1.4191548e-05
4.2369818e-08
2.3387088e-08
1.414202e-05
4.1699222e-08
2.2889603e-08
1.4093249e-05
4.1141529e-08
2.2456598e-08
1.4044951e-05
4.0844509e-08
2.2146508e-08
1.3996486e-05
4.1169054e-08
2.2122991e-08
1.394623e-05
4.301218e-08
2.2985335e-08
1.389015e-05
4.8540127e-08
2.5565707e-08
6.3281435e-08
5.0000682e-08
0.00010603565
2.7876425e-06
6.4750379e-06
0.00010074799
4.4145413e-06
6.5685292e-06
9.5493515e-05
4.8594028e-06
6.1741158e-06
9.0256432e-05
4.930369e-06
5.9581921e-06
8.5101366e-05
4.8311767e-06
5.6908011e-06
8.0102875e-05
4.5561761e-06
5.3445981e-06
7.5322251e-05
4.1469521e-06
4.9614853e-06
7.0803266e-05
3.6678926e-06
4.5689837e-06
6.6576264e-05
3.1701903e-06
4.1811255e-06
6.2660725e-05
2.6900109e-06
3.8075976e-06
5.9065443e-05
2.2519318e-06
3.4554566e-06
5.5788936e-05
1.8697303e-06
3.1287957e-06
5.2820978e-05
1.5477473e-06
2.8291458e-06
5.014479e-05
1.2836302e-06
2.5563139e-06
4.7739304e-05
1.07123e-06
2.3091141e-06
4.5581183e-05
9.0281506e-07
2.0858661e-06
4.3646423e-05
7.7048779e-07
1.884709e-06
4.1911533e-05
6.6697372e-07
1.7037793e-06
4.0354306e-05
5.8598198e-07
1.541295e-06
3.8954268e-05
5.2230226e-07
1.3955849e-06
3.769288e-05
4.7175606e-07
1.265091e-06
3.6553576e-05
4.3107984e-07
1.1483634e-06
3.552169e-05
3.9778208e-07
1.0440533e-06
3.4584322e-05
3.6999883e-07
9.5090829e-07
3.3730181e-05
3.4635985e-07
8.6777017e-07
3.2949411e-05
3.258776e-07
7.935687e-07
3.2233419e-05
3.0784045e-07
7.2733485e-07
3.157471e-05
2.9172986e-07
6.6818104e-07
3.0966769e-05
2.7719267e-07
6.1530127e-07
3.0403928e-05
2.6398102e-07
5.6797021e-07
2.9881258e-05
2.5190849e-07
5.2554317e-07
2.9394455e-05
2.4082713e-07
4.8745002e-07
2.8939761e-05
2.3062161e-07
4.5318329e-07
2.8513895e-05
2.2120153e-07
4.2229387e-07
2.8113985e-05
2.1249194e-07
3.9438672e-07
2.7737518e-05
2.0442797e-07
3.6911488e-07
2.7382285e-05
1.9695191e-07
3.4617381e-07
2.7046344e-05
1.9001174e-07
3.2529678e-07
2.6727982e-05
1.8355994e-07
3.0625044e-07
2.6425689e-05
1.7755274e-07
2.8883083e-07
2.6138123e-05
1.7195001e-07
2.7285981e-07
2.5864094e-05
1.6671514e-07
2.5818186e-07
2.5602546e-05
1.6181451e-07
2.4466089e-07
2.535253e-05
1.572171e-07
2.3217766e-07
2.51132e-05
1.5289442e-07
2.2062725e-07
2.4883797e-05
1.4882095e-07
2.0991776e-07
2.4663634e-05
1.4497367e-07
1.9996813e-07
2.4452094e-05
1.4133183e-07
1.9070705e-07
2.4248615e-05
1.3787699e-07
1.8207152e-07
2.405269e-05
1.3459267e-07
1.7400569e-07
2.3863854e-05
1.314646e-07
1.6645989e-07
2.3681684e-05
1.2848059e-07
1.5938928e-07
2.3505794e-05
1.256292e-07
1.5275413e-07
2.3335829e-05
1.2289868e-07
1.4651971e-07
2.3171462e-05
1.2027637e-07
1.4065462e-07
2.3012394e-05
1.1775474e-07
1.351302e-07
2.2858345e-05
1.1532967e-07
1.2992041e-07
2.2709057e-05
1.1299535e-07
1.2500171e-07
2.2564291e-05
1.1074516e-07
1.2035291e-07
2.2423824e-05
1.0857346e-07
1.1595458e-07
2.2287451e-05
1.0647551e-07
1.1178925e-07
2.2154978e-05
1.0444703e-07
1.0784078e-07
2.2026226e-05
1.0248424e-07
1.0409459e-07
2.1901025e-05
1.0058353e-07
1.0053715e-07
2.1779218e-05
9.8741574e-08
9.7156148e-08
2.1660658e-05
9.6954917e-08
9.3940272e-08
2.1545205e-05
9.5221319e-08
9.0879042e-08
2.1432729e-05
9.3538834e-08
8.7962778e-08
2.1323107e-05
9.1905347e-08
8.5182598e-08
2.1216222e-05
9.0318551e-08
8.2530152e-08
2.1111965e-05
8.8776456e-08
7.9997857e-08
2.1010233e-05
8.7277193e-08
7.7578627e-08
2.0910927e-05
8.5819041e-08
7.5265867e-08
2.0813956e-05
8.4400411e-08
7.3053414e-08
2.0719231e-05
8.3019756e-08
7.0935645e-08
2.0626671e-05
8.1675723e-08
6.8907242e-08
2.0536195e-05
8.0366902e-08
6.6963151e-08
2.0447729e-05
7.9092052e-08
6.5098778e-08
2.0361202e-05
7.7849902e-08
6.3309782e-08
2.0276548e-05
7.6639276e-08
6.1592058e-08
2.0193701e-05
7.5459035e-08
5.9941717e-08
2.0112602e-05
7.4307992e-08
5.8355264e-08
2.0033193e-05
7.3184936e-08
5.6829084e-08
1.9955418e-05
7.2088591e-08
5.5360005e-08
1.9879228e-05
7.1017603e-08
5.3944851e-08
1.9804572e-05
6.9970389e-08
5.2580751e-08
1.9731405e-05
6.8945199e-08
5.1264824e-08
1.9659685e-05
6.7940073e-08
4.9994398e-08
1.958937e-05
6.6952921e-08
4.8767017e-08
1.9520423e-05
6.5982211e-08
4.7580554e-08
1.9452807e-05
6.502788e-08
4.6433084e-08
1.9386482e-05
6.4093964e-08
4.5323728e-08
1.9321404e-05
6.3194537e-08
4.4253055e-08
1.9257512e-05
6.2366124e-08
4.3225175e-08
1.9194705e-05
6.1694951e-08
4.2253075e-08
1.9132799e-05
6.1373842e-08
4.137737e-08
1.9071395e-05
6.1822159e-08
4.0750636e-08
1.9009425e-05
6.392448e-08
4.1057571e-08
1.8944662e-05
6.930445e-08
4.3998796e-08
7.9170712e-08
7.4661378e-08
0.0001054937
1.9169871e-06
6.4880406e-06
0.00010005365
3.2729596e-06
6.5816334e-06
9.4926077e-05
3.8288995e-06
6.1580776e-06
8.9946373e-05
3.9838108e-06
5.9262629e-06
8.5163276e-05
3.9595077e-06
5.6547657e-06
8.0619137e-05
3.7899369e-06
5.3103784e-06
7.6329462e-05
3.5015547e-06
4.9350725e-06
7.230016e-05
3.1412013e-06
4.5559928e-06
6.8534206e-05
2.7514802e-06
4.1846641e-06
6.5032983e-05
2.3633493e-06
3.8278852e-06
6.1795789e-05
1.9984143e-06
3.490711e-06
5.8818843e-05
1.6703759e-06
3.176301e-06
5.6094718e-05
1.3858294e-06
2.8860429e-06
5.3612488e-05
1.1457945e-06
2.6200649e-06
5.1358373e-05
9.4764117e-07
2.3777043e-06
4.9316593e-05
7.8676784e-07
2.1578272e-06
4.7470246e-05
6.5779545e-07
1.9590391e-06
4.5802069e-05
5.5532542e-07
1.7798252e-06
4.4295042e-05
4.7437115e-07
1.6186378e-06
4.293283e-05
4.1056669e-07
1.473948e-06
4.1700078e-05
3.6023237e-07
1.3442759e-06
4.0582591e-05
3.2035743e-07
1.2282094e-06
3.956742e-05
2.8853736e-07
1.1244154e-06
3.8642881e-05
2.6289066e-07
1.0316467e-06
3.7798527e-05
2.4196985e-07
9.4874399e-07
3.7025076e-05
2.2467703e-07
8.7465171e-07
3.6314324e-05
2.1018899e-07
8.0840412e-07
3.5659057e-05
1.9788604e-07
7.491104e-07
3.5052961e-05
1.8731583e-07
6.9597279e-07
3.4490519e-05
1.7814869e-07
6.4827379e-07
3.3966922e-05
1.7013172e-07
6.0537441e-07
3.3477973e-05
1.630673e-07
5.6670869e-07
3.3020016e-05
1.5680299e-07
5.3177545e-07
3.2589865e-05
1.5122054e-07
5.0013243e-07
3.218474e-05
1.4622566e-07
4.7139137e-07
3.1802215e-05
1.4174074e-07
4.4521233e-07
3.1440168e-05
1.3770095e-07
4.2129809e-07
3.1096739e-05
1.3405094e-07
3.9938922e-07
3.0770297e-05
1.3074293e-07
3.7925953e-07
3.0459402e-05
1.2773516e-07
3.6071194e-07
3.0162787e-05
1.249909e-07
3.4357477e-07
2.9879325e-05
1.2247785e-07
3.276985e-07
2.960802e-05
1.2016731e-07
3.129527e-07
2.934798e-05
1.1803381e-07
2.9922353e-07
2.9098408e-05
1.1605461e-07
2.8641139e-07
2.885859e-05
1.1420985e-07
2.7442905e-07
2.8627882e-05
1.1248191e-07
2.6319998e-07
2.8405701e-05
1.1085561e-07
2.5265686e-07
2.819152e-05
1.093176e-07
2.4274022e-07
2.7984859e-05
1.0785651e-07
2.3339753e-07
2.7785279e-05
1.0646281e-07
2.2458214e-07
2.7592378e-05
1.0512874e-07
2.1625213e-07
2.740579e-05
1.0384735e-07
2.0837035e-07
2.7225174e-05
1.0261118e-07
2.009036e-07
2.705022e-05
1.0140746e-07
1.938226e-07
2.6880641e-05
1.0023382e-07
1.8710042e-07
2.6716166e-05
9.9092357e-08
1.8071226e-07
2.6556546e-05
9.7980002e-08
1.7463558e-07
2.6401548e-05
9.6892517e-08
1.6885014e-07
2.6250957e-05
9.5827095e-08
1.633374e-07
2.610457e-05
9.4781707e-08
1.5808044e-07
2.5962199e-05
9.3754765e-08
1.5306362e-07
2.5823666e-05
9.2744928e-08
1.482726e-07
2.5688804e-05
9.175106e-08
1.4369414e-07
2.5557458e-05
9.0771806e-08
1.3931596e-07
2.5429481e-05
8.9805216e-08
1.3512692e-07
2.5304734e-05
8.8851486e-08
1.3111643e-07
2.5183087e-05
8.7911246e-08
1.2727466e-07
2.5064416e-05
8.6983966e-08
1.2359244e-07
2.4948604e-05
8.6068936e-08
1.2006118e-07
2.4835542e-05
8.5165834e-08
1.1667303e-07
2.4725124e-05
8.4274376e-08
1.1342046e-07
2.4617252e-05
8.3394333e-08
1.1029657e-07
2.4511832e-05
8.2525508e-08
1.0729479e-07
2.4408775e-05
8.1667825e-08
1.0440903e-07
2.4307996e-05
8.0821011e-08
1.0163349e-07
2.4209416e-05
7.9985085e-08
9.8962691e-08
2.4112956e-05
7.9159766e-08
9.6391561e-08
2.4018546e-05
7.834506e-08
9.3915323e-08
2.3926115e-05
7.7540703e-08
9.1529339e-08
2.3835598e-05
7.674655e-08
8.92293e-08
2.3746933e-05
7.5962299e-08
8.7011091e-08
2.3660059e-05
7.5187614e-08
8.4870753e-08
2.3574921e-05
7.4421944e-08
8.2804579e-08
2.3491466e-05
7.3664556e-08
8.0808938e-08
2.3409641e-05
7.2914536e-08
7.888038e-08
2.33294e-05
7.21706e-08
7.7015503e-08
2.3250698e-05
7.1431184e-08
7.5211013e-08
2.3173492e-05
7.0694712e-08
7.3463619e-08
2.3097745e-05
6.9960061e-08
7.177005e-08
2.3023418e-05
6.9227792e-08
7.0126979e-08
2.2950477e-05
6.8503287e-08
6.8531162e-08
2.2878889e-05
6.7802614e-08
6.6979676e-08
2.2808619e-05
6.7164816e-08
6.5471522e-08
2.2739626e-05
6.6674988e-08
6.4013315e-08
2.2671851e-05
6.6506733e-08
6.2642269e-08
2.260515e-05
6.6990439e-08
6.153233e-08
2.2538889e-05
6.8685715e-08
6.1499854e-08
2.2471122e-05
7.2226629e-08
6.4845085e-08
7.6722575e-08
9.8461198e-08
0.0001051979
1.3340884e-06
6.4961221e-06
9.9496561e-05
2.3731022e-06
6.6011946e-06
9.4262459e-05
2.9019224e-06
6.1610798e-06
8.9251186e-05
3.0856642e-06
5.9094196e-06
8.4493498e-05
3.0947347e-06
5.6224614e-06
8.0033635e-05
2.9846656e-06
5.265134e-06
7.5876907e-05
2.7790155e-06
4.8792667e-06
7.2014635e-05
2.5106843e-06
4.4927895e-06
6.8436293e-05
2.2128728e-06
4.1169489e-06
6.5131387e-05
1.9107259e-06
3.7575291e-06
6.208941e-05
1.621732e-06
3.4186596e-06
5.9299432e-05
1.3573877e-06
3.1029661e-06
5.6749589e-05
1.1240344e-06
2.8116387e-06
5.4426788e-05
9.2377947e-07
2.5448158e-06
5.2316754e-05
7.5572797e-07
2.3019466e-06
5.0404313e-05
6.1717853e-07
2.0820302e-06
4.8673788e-05
5.0454351e-07
1.8837772e-06
4.7109414e-05
4.1397181e-07
1.7057274e-06
4.5695713e-05
3.417365e-07
1.5463363e-06
4.4417792e-05
2.844515e-07
1.4040359e-06
4.3261575e-05
2.3917116e-07
1.277278e-06
4.2213952e-05
2.0341505e-07
1.1645652e-06
4.1262871e-05
1.7514744e-07
1.0644718e-06
4.039737e-05
1.5273235e-07
9.7565898e-07
3.9607583e-05
1.348753e-07
8.9688145e-07
3.8884688e-05
1.2055569e-07
8.270164e-07
3.8220848e-05
1.0901092e-07
7.6501855e-07
3.7609155e-05
9.9633824e-08
7.0994486e-07
3.7043542e-05
9.1977438e-08
6.6095088e-07
3.6518702e-05
8.5705833e-08
6.172829e-07
3.6030009e-05
8.0552408e-08
5.7827309e-07
3.5573433e-05
7.630829e-08
5.4333414e-07
3.5145475e-05
7.2811262e-08
5.119503e-07
3.4743091e-05
6.9934105e-08
4.8367022e-07
3.4363641e-05
6.7575408e-08
4.5810065e-07
3.4004828e-05
6.565289e-08
4.3489998e-07
3.3664659e-05
6.4098582e-08
4.1377211e-07
3.3341393e-05
6.2855909e-08
3.9446093e-07
3.3033513e-05
6.1877047e-08
3.7674525e-07
3.2739693e-05
6.1121107e-08
3.6043422e-07
3.2458768e-05
6.0553085e-08
3.4536329e-07
3.2189712e-05
6.0142668e-08
3.3139056e-07
3.1931622e-05
5.9863669e-08
3.1839374e-07
3.1683696e-05
5.9693113e-08
3.0626734e-07
3.1445219e-05
5.9611179e-08
2.9492014e-07
3.1215555e-05
5.9600623e-08
2.8427317e-07
3.0994132e-05
5.9646546e-08
2.7425805e-07
3.0780436e-05
5.9736176e-08
2.6481538e-07
3.0574002e-05
5.9858686e-08
2.5589333e-07
3.0374407e-05
6.000491e-08
2.4744661e-07
3.0181267e-05
6.016765e-08
2.3943547e-07
2.9994229e-05
6.0341249e-08
2.3182485e-07
2.9812971e-05
6.0521803e-08
2.2458371e-07
2.9637193e-05
6.0704473e-08
2.1768456e-07
2.9466629e-05
6.0867302e-08
2.1110458e-07
2.9301024e-05
6.1017025e-08
2.0482179e-07
2.914014e-05
6.1160877e-08
1.988157e-07
2.8983756e-05
6.1294934e-08
1.9306836e-07
2.8831669e-05
6.1415471e-08
1.8756385e-07
2.8683688e-05
6.1520976e-08
1.8228764e-07
2.8539633e-05
6.1610607e-08
1.7722635e-07
2.8399336e-05
6.1683852e-08
1.7236783e-07
2.8262639e-05
6.1740531e-08
1.6770089e-07
2.8129394e-05
6.178072e-08
1.6321518e-07
2.7999461e-05
6.1803911e-08
1.589012e-07
2.7872709e-05
6.1807421e-08
1.5475036e-07
2.7749012e-05
6.1793606e-08
1.5075441e-07
2.7628253e-05
6.1764879e-08
1.4690558e-07
2.7510319e-05
6.172106e-08
1.4319661e-07
2.7395105e-05
6.1662204e-08
1.3962086e-07
2.728251e-05
6.1588703e-08
1.3617201e-07
2.7172439e-05
6.1501116e-08
1.3284421e-07
2.7064802e-05
6.1400007e-08
1.2963195e-07
2.6959511e-05
6.1285971e-08
1.2652994e-07
2.6856486e-05
6.1159564e-08
1.2353328e-07
2.6755648e-05
6.1021347e-08
1.2063737e-07
2.6656924e-05
6.08719e-08
1.1783771e-07
2.6560242e-05
6.0711748e-08
1.1513019e-07
2.6465535e-05
6.0541393e-08
1.1251083e-07
2.6372738e-05
6.0361314e-08
1.0997586e-07
2.6281791e-05
6.0171911e-08
1.0752165e-07
2.6192635e-05
5.9973495e-08
1.0514476e-07
2.6105215e-05
5.9766226e-08
1.0284186e-07
2.6019477e-05
5.955015e-08
1.0060978e-07
2.5935371e-05
5.9325038e-08
9.844533e-08
2.585285e-05
5.9090368e-08
9.6345414e-08
2.5771868e-05
5.8845332e-08
9.4306954e-08
2.5692384e-05
5.8588839e-08
9.232676e-08
2.5614357e-05
5.8319651e-08
9.0401441e-08
2.5537753e-05
5.8036884e-08
8.8527303e-08
2.5462539e-05
5.7741395e-08
8.6700178e-08
2.5388689e-05
5.7438188e-08
8.4915118e-08
2.5316184e-05
5.7141209e-08
8.3166569e-08
2.5245017e-05
5.6882316e-08
8.1449575e-08
2.5175201e-05
5.6725766e-08
7.9765749e-08
2.5106771e-05
5.6787618e-08
7.8149135e-08
2.5039729e-05
5.7251285e-08
7.6780905e-08
2.4973574e-05
5.8330642e-08
7.6510172e-08
2.4906079e-05
5.9989197e-08
7.973212e-08
6.0714725e-08
1.1287812e-07
0.00010503672
9.0789371e-07
6.5005614e-06
9.9140653e-05
1.6524914e-06
6.6166801e-06
9.3788329e-05
2.0825242e-06
6.1717217e-06
8.8708526e-05
2.2549373e-06
5.91053e-06
8.3909682e-05
2.278404e-06
5.6151748e-06
7.9437109e-05
2.2074821e-06
5.2497564e-06
7.5296201e-05
2.0645348e-06
4.8553893e-06
7.1474034e-05
1.8722543e-06
4.4605969e-06
6.7955013e-05
1.6547667e-06
4.0771269e-06
6.4723621e-05
1.4313505e-06
3.7107669e-06
6.1764423e-05
1.2154297e-06
3.3655007e-06
5.9062056e-05
1.015864e-06
3.0438911e-06
5.6601108e-05
8.3782743e-07
2.7471548e-06
5.4365944e-05
6.8344648e-07
2.475497e-06
5.2340648e-05
5.5258528e-07
2.2284383e-06
5.0509125e-05
4.4366548e-07
2.0050361e-06
4.8855299e-05
3.5433456e-07
1.8040352e-06
4.7363353e-05
2.819359e-07
1.6239821e-06
4.6017963e-05
2.2381346e-07
1.4633127e-06
4.4804503e-05
1.7749382e-07
1.3204181e-06
4.3709199e-05
1.4078089e-07
1.1936935e-06
4.2719248e-05
1.1179157e-07
1.081575e-06
4.1822875e-05
8.8954561e-08
9.8256583e-07
4.1009364e-05
7.0987986e-08
8.9525474e-07
4.0269054e-05
5.6861847e-08
8.1832383e-07
3.9593306e-05
4.5719124e-08
7.5058474e-07
3.8974405e-05
3.6977863e-08
6.9093436e-07
3.8405585e-05
3.0067372e-08
6.3838631e-07
3.7880869e-05
2.4650848e-08
5.9204241e-07
3.7395029e-05
2.0439995e-08
5.5110607e-07
3.6943514e-05
1.7190263e-08
5.1487713e-07
3.6522366e-05
1.4716726e-08
4.8273955e-07
3.6128148e-05
1.2874752e-08
4.541539e-07
3.5757883e-05
1.1549882e-08
4.2864941e-07
3.5408991e-05
1.0650773e-08
4.0581705e-07
3.5079238e-05
1.0103613e-08
3.8530228e-07
3.4766689e-05
9.8482753e-09
3.6679879e-07
3.4469668e-05
9.8351251e-09
3.5004234e-07
3.4186716e-05
1.0022915e-08
3.3480551e-07
3.3916567e-05
1.0377047e-08
3.2089287e-07
3.3658116e-05
1.0868105e-08
3.0813658e-07
3.3410395e-05
1.147099e-08
2.9639285e-07
3.3172556e-05
1.2164247e-08
2.8553826e-07
3.2943853e-05
1.2929324e-08
2.7546719e-07
3.2723625e-05
1.3750196e-08
2.6608896e-07
3.2511286e-05
1.4613072e-08
2.5732572e-07
3.2306316e-05
1.5506262e-08
2.4911067e-07
3.2108246e-05
1.6419592e-08
2.4138619e-07
3.1916658e-05
1.7344619e-08
2.341027e-07
3.1731171e-05
1.8274333e-08
2.2721715e-07
3.1551444e-05
1.9203161e-08
2.2069213e-07
3.1377162e-05
2.0127725e-08
2.1449508e-07
3.1208038e-05
2.1048644e-08
2.085968e-07
3.10438e-05
2.1972774e-08
2.0297054e-07
3.0884232e-05
2.2827855e-08
1.9760737e-07
3.0729103e-05
2.3663006e-08
1.9248227e-07
3.05782e-05
2.4490026e-08
1.8757379e-07
3.0431331e-05
2.5296275e-08
1.8286765e-07
3.0288318e-05
2.6078006e-08
1.7835074e-07
3.0148994e-05
2.6834351e-08
1.7401107e-07
3.0013202e-05
2.7564744e-08
1.6983756e-07
2.9880797e-05
2.8269019e-08
1.6582023e-07
2.975164e-05
2.8947461e-08
1.6195015e-07
2.9625601e-05
2.9600804e-08
1.5821896e-07
2.9502557e-05
3.0228599e-08
1.546192e-07
2.9382396e-05
3.0823652e-08
1.5114466e-07
2.9265007e-05
3.1393201e-08
1.4778878e-07
2.9150287e-05
3.1939638e-08
1.4454536e-07
2.9038137e-05
3.2461927e-08
1.4140903e-07
2.8928465e-05
3.2960103e-08
1.3837462e-07
2.8821181e-05
3.3434771e-08
1.3543751e-07
2.8716203e-05
3.3886344e-08
1.325933e-07
2.8613449e-05
3.4315586e-08
1.2983789e-07
2.8512845e-05
3.4722915e-08
1.2716741e-07
2.8414317e-05
3.5108984e-08
1.245782e-07
2.8317797e-05
3.5474482e-08
1.2206685e-07
2.8223219e-05
3.5819911e-08
1.1963012e-07
2.813052e-05
3.6145906e-08
1.1726495e-07
2.803964e-05
3.6453031e-08
1.1496845e-07
2.7950522e-05
3.6741858e-08
1.1273779e-07
2.786311e-05
3.7012765e-08
1.1057034e-07
2.7777354e-05
3.7266189e-08
1.0846346e-07
2.7693203e-05
3.7502385e-08
1.0641478e-07
2.761061e-05
3.7721482e-08
1.0442178e-07
2.752953e-05
3.7923429e-08
1.0248202e-07
2.7449919e-05
3.8107854e-08
1.0059308e-07
2.7371738e-05
3.8274114e-08
9.8752295e-08
2.7294949e-05
3.8421375e-08
9.6956868e-08
2.7219516e-05
3.8548537e-08
9.5203592e-08
2.714541e-05
3.8654944e-08
9.3488606e-08
2.7072603e-05
3.8740913e-08
9.1806896e-08
2.7001079e-05
3.8810072e-08
9.0152262e-08
2.6930832e-05
3.8871935e-08
8.8516474e-08
2.6861876e-05
3.8947177e-08
8.6890444e-08
2.679426e-05
3.9073318e-08
8.526909e-08
2.6728065e-05
3.9306723e-08
8.3675828e-08
2.6663337e-05
3.9708081e-08
8.2271065e-08
2.659956e-05
4.0271713e-08
8.1836085e-08
2.6534296e-05
4.0697792e-08
8.4555634e-08
3.9620595e-08
1.150712e-07
0.00010494757
5.6811081e-07
6.5033076e-06
9.8925416e-05
1.0462983e-06
6.6283516e-06
9.3480449e-05
1.3439845e-06
6.1835065e-06
8.8341777e-05
1.4751324e-06
5.9184763e-06
8.3502084e-05
1.4993911e-06
5.6187065e-06
7.9004057e-05
1.4572411e-06
5.2482679e-06
7.4853978e-05
1.3667382e-06
4.8478757e-06
7.1037378e-05
1.2423973e-06
4.4464569e-06
6.7536063e-05
1.0997693e-06
4.0563127e-06
6.4331998e-05
9.5192358e-07
3.6834909e-06
6.1407318e-05
8.0805755e-07
3.3320524e-06
5.8744339e-05
6.7422205e-07
3.0046209e-06
5.6325632e-05
5.5404397e-07
2.7024907e-06
5.4133973e-05
4.4916747e-07
2.4259383e-06
5.2152298e-05
3.59724e-07
2.174536e-06
5.0363747e-05
2.8484512e-07
1.9473717e-06
4.875178e-05
2.2310005e-07
1.7432015e-06
4.7300339e-05
1.7281164e-07
1.5605647e-06
4.5994012e-05
1.3226575e-07
1.3978748e-06
4.4818177e-05
9.9840021e-08
1.2534891e-06
4.3759121e-05
7.4075596e-08
1.1257614e-06
4.2804123e-05
5.3707645e-08
1.0130814e-06
4.1941503e-05
3.7671224e-08
9.1390374e-07
4.1160627e-05
2.5096436e-08
8.267673e-07
4.0451891e-05
1.5294178e-08
7.5030386e-07
3.980679e-05
7.5281797e-09
6.8329174e-07
3.9217543e-05
1.6727488e-09
6.2455202e-07
3.8677513e-05
-3.0331014e-09
5.7313081e-07
3.8180739e-05
-6.6486935e-09
5.2807353e-07
3.7722004e-05
-9.3595211e-09
4.8853448e-07
3.7296777e-05
-1.1371819e-08
4.5378925e-07
3.6901113e-05
-1.2818245e-08
4.2319912e-07
3.6531588e-05
-1.3805338e-08
3.9620478e-07
3.6185236e-05
-1.4417506e-08
3.7231874e-07
3.5859491e-05
-1.4721898e-08
3.5111775e-07
3.5552132e-05
-1.4772626e-08
3.322358e-07
3.5261237e-05
-1.4613912e-08
3.1535729e-07
3.4985143e-05
-1.428217e-08
3.002109e-07
3.472241e-05
-1.3807724e-08
2.8656376e-07
3.4471787e-05
-1.321588e-08
2.7421629e-07
3.4232185e-05
-1.2528161e-08
2.6299767e-07
3.4002657e-05
-1.1762762e-08
2.5276172e-07
3.3782373e-05
-1.0935223e-08
2.4338334e-07
3.3570606e-05
-1.0058743e-08
2.3475555e-07
3.3366714e-05
-9.1447347e-09
2.267867e-07
3.3170132e-05
-8.2027926e-09
2.1939832e-07
3.2980356e-05
-7.2412074e-09
2.12523e-07
3.279694e-05
-6.2669202e-09
2.0610282e-07
3.2619482e-05
-5.285564e-09
2.0008782e-07
3.2447623e-05
-4.3018482e-09
1.9443477e-07
3.228104e-05
-3.3190777e-09
1.8910587e-07
3.2119438e-05
-2.3383527e-09
1.8406734e-07
3.1962554e-05
-1.3530511e-09
1.7928647e-07
3.1810075e-05
-2.7631892e-10
1.7472764e-07
3.1661878e-05
5.8583235e-10
1.7043905e-07
3.1517732e-05
1.4356106e-09
1.6637293e-07
3.1377429e-05
2.3038469e-09
1.6248957e-07
3.1240792e-05
3.1586534e-09
1.5877488e-07
3.1107656e-05
3.9970049e-09
1.552172e-07
3.0977867e-05
4.8171852e-09
1.5180549e-07
3.0851284e-05
5.6179852e-09
1.4852966e-07
3.0727774e-05
6.3990554e-09
1.4538079e-07
3.060721e-05
7.1609744e-09
1.4235058e-07
3.0489473e-05
7.9059566e-09
1.394312e-07
3.037445e-05
8.6357954e-09
1.366158e-07
3.0262049e-05
9.3207083e-09
1.3390398e-07
3.0152163e-05
9.9938675e-09
1.3128566e-07
3.0044697e-05
1.0650414e-08
1.2875514e-07
2.9939564e-05
1.1286773e-08
1.2630829e-07
2.983668e-05
1.1903229e-08
1.239409e-07
2.9735965e-05
1.2500186e-08
1.2164884e-07
2.9637346e-05
1.3077905e-08
1.1942844e-07
2.9540748e-05
1.3636702e-08
1.1727618e-07
2.9446105e-05
1.4176997e-08
1.1518887e-07
2.9353352e-05
1.4699189e-08
1.1316342e-07
2.9262425e-05
1.520352e-08
1.1119706e-07
2.9173268e-05
1.569049e-08
1.0928712e-07
2.9085822e-05
1.616038e-08
1.0743112e-07
2.9000035e-05
1.6613537e-08
1.0562666e-07
2.8915855e-05
1.7050337e-08
1.038716e-07
2.8833233e-05
1.7471044e-08
1.0216368e-07
2.8752122e-05
1.787586e-08
1.0050083e-07
2.8672479e-05
1.8265006e-08
9.8881119e-08
2.8594259e-05
1.8638439e-08
9.7302493e-08
2.8517423e-05
1.89961e-08
9.5762959e-08
2.8441933e-05
1.9337717e-08
9.4260342e-08
2.8367752e-05
1.9662688e-08
9.279233e-08
2.8294847e-05
1.9970367e-08
9.1356246e-08
2.8223187e-05
2.0259854e-08
8.9948802e-08
2.8152746e-05
2.0530544e-08
8.8565873e-08
2.8083502e-05
2.0782452e-08
8.7201762e-08
2.8015446e-05
2.1017384e-08
8.5848612e-08
2.7948582e-05
2.1240559e-08
8.4495767e-08
2.7882937e-05
2.1462555e-08
8.3129385e-08
2.7818574e-05
2.1699781e-08
8.1736399e-08
2.7755588e-05
2.1969119e-08
8.0324242e-08
2.7694014e-05
2.2265966e-08
7.9015948e-08
2.7633299e-05
2.2506084e-08
7.8480553e-08
2.7571004e-05
2.2393191e-08
8.0599352e-08
2.0992881e-08
1.0779933e-07
0.00010489986
2.7443378e-07
6.5049155e-06
9.8802772e-05
5.0716635e-07
6.6362236e-06
9.329591e-05
6.5854978e-07
6.1922972e-06
8.8116302e-05
7.2902549e-07
5.9257148e-06
8.3248198e-05