/*--------------------------------*- C++ -*----------------------------------*\
  =========                 |
  \\      /  F ield         | OpenFOAM: The Open Source CFD Toolbox
   \\    /   O peration     | Website:  https://openfoam.org
    \\  /    A nd           | Version:  7
     \\/     M anipulation  |
\*---------------------------------------------------------------------------*/
FoamFile
{
    version     2.0;
    format      ascii;
    class       volScalarField;
    location    "150/water";
    object      T;
}
// * * * * * * * * * * * * * * * * * * * * * * * * * * * * * * * * * * * * * //

dimensions      [0 0 0 1 0 0 0];

internalField   nonuniform List<scalar> 
54000
(
300.00147
300.00308
300.00488
300.00689
300.00915
300.01167
300.01449
300.01761
300.02099
300.0246
300.02838
300.03224
300.03612
300.03995
300.04368
300.04727
300.0507
300.05394
300.05698
300.05983
300.06249
300.06496
300.06724
300.06936
300.07131
300.07311
300.07478
300.07632
300.07774
300.07905
300.08027
300.0814
300.08245
300.08343
300.08434
300.08518
300.08597
300.08671
300.0874
300.08804
300.08864
300.0892
300.08972
300.0902
300.09066
300.09108
300.09147
300.09184
300.09217
300.09249
300.09277
300.09304
300.09328
300.0935
300.09369
300.09387
300.09403
300.09417
300.09429
300.09439
300.09448
300.09455
300.09461
300.09466
300.09469
300.09472
300.09473
300.09474
300.09473
300.09472
300.0947
300.09468
300.09465
300.09462
300.09458
300.09454
300.09449
300.09445
300.0944
300.09434
300.09429
300.09424
300.09418
300.09413
300.09407
300.09401
300.09395
300.0939
300.09384
300.09378
300.09372
300.09366
300.0936
300.09354
300.09348
300.09342
300.09336
300.0933
300.09325
300.09319
300.00008
300.00026
300.00053
300.00089
300.00135
300.00189
300.00251
300.00319
300.00393
300.0047
300.00551
300.00636
300.00725
300.00818
300.00916
300.01019
300.01127
300.0124
300.01356
300.01475
300.01597
300.0172
300.01844
300.01967
300.02091
300.02213
300.02334
300.02453
300.02569
300.02683
300.02795
300.02904
300.0301
300.03114
300.03214
300.03312
300.03407
300.035
300.03589
300.03676
300.03761
300.03842
300.03921
300.03998
300.04072
300.04143
300.04212
300.04278
300.04341
300.04402
300.0446
300.04515
300.04568
300.04617
300.04664
300.04707
300.04748
300.04785
300.04819
300.0485
300.04878
300.04903
300.04924
300.04942
300.04958
300.0497
300.04979
300.04986
300.04991
300.04993
300.04992
300.0499
300.04986
300.0498
300.04973
300.04964
300.04954
300.04943
300.04931
300.04918
300.04905
300.04891
300.04876
300.04862
300.04846
300.04831
300.04815
300.048
300.04784
300.04768
300.04752
300.04736
300.0472
300.04704
300.04688
300.04672
300.04657
300.04641
300.04627
300.04617
300
300.00002
300.00005
300.0001
300.00018
300.00028
300.00041
300.00056
300.00073
300.00091
300.0011
300.00129
300.00149
300.0017
300.00192
300.00216
300.0024
300.00267
300.00295
300.00325
300.00357
300.00392
300.00428
300.00466
300.00505
300.00547
300.0059
300.00634
300.00679
300.00725
300.00772
300.0082
300.00868
300.00917
300.00966
300.01015
300.01064
300.01114
300.01163
300.01212
300.01261
300.0131
300.01359
300.01407
300.01454
300.01502
300.01548
300.01595
300.0164
300.01685
300.01728
300.01771
300.01813
300.01854
300.01893
300.01932
300.01968
300.02004
300.02037
300.02069
300.02099
300.02126
300.02152
300.02175
300.02196
300.02215
300.02231
300.02244
300.02255
300.02263
300.02269
300.02272
300.02272
300.0227
300.02265
300.02258
300.02249
300.02238
300.02225
300.0221
300.02193
300.02175
300.02156
300.02136
300.02115
300.02093
300.02071
300.02048
300.02025
300.02002
300.01979
300.01956
300.01933
300.0191
300.01887
300.01865
300.01843
300.01821
300.01801
300.01783
300
300
300
300.00001
300.00002
300.00003
300.00006
300.00008
300.00011
300.00015
300.00019
300.00023
300.00028
300.00032
300.00037
300.00042
300.00047
300.00053
300.00059
300.00065
300.00072
300.0008
300.00088
300.00096
300.00106
300.00116
300.00127
300.00138
300.0015
300.00163
300.00176
300.0019
300.00205
300.0022
300.00236
300.00252
300.00269
300.00286
300.00304
300.00322
300.00341
300.0036
300.0038
300.00399
300.00419
300.0044
300.0046
300.00481
300.00502
300.00523
300.00544
300.00566
300.00587
300.00608
300.00629
300.0065
300.00671
300.00691
300.00711
300.00731
300.0075
300.00768
300.00786
300.00802
300.00818
300.00833
300.00847
300.00859
300.0087
300.00879
300.00887
300.00893
300.00898
300.009
300.009
300.00899
300.00895
300.00889
300.0088
300.0087
300.00857
300.00843
300.00826
300.00808
300.00787
300.00765
300.00742
300.00718
300.00693
300.00666
300.0064
300.00613
300.00586
300.00558
300.00531
300.00504
300.00478
300.00452
300.00427
300.00403
300
300
300
300
300
300
300.00001
300.00001
300.00001
300.00002
300.00003
300.00003
300.00004
300.00005
300.00006
300.00007
300.00008
300.00009
300.0001
300.00011
300.00012
300.00014
300.00015
300.00017
300.00019
300.00021
300.00023
300.00025
300.00028
300.00031
300.00034
300.00037
300.0004
300.00044
300.00047
300.00051
300.00056
300.0006
300.00065
300.0007
300.00075
300.0008
300.00086
300.00092
300.00098
300.00104
300.00111
300.00118
300.00125
300.00132
300.00139
300.00147
300.00154
300.00162
300.0017
300.00178
300.00187
300.00195
300.00203
300.00212
300.0022
300.00228
300.00236
300.00245
300.00252
300.0026
300.00267
300.00274
300.00281
300.00287
300.00292
300.00297
300.00301
300.00304
300.00306
300.00306
300.00306
300.00303
300.003
300.00294
300.00287
300.00278
300.00267
300.00254
300.00238
300.00221
300.00202
300.00181
300.00158
300.00134
300.00109
300.00082
300.00054
300.00026
299.99998
299.99969
299.9994
299.99912
299.99883
299.99856
300
300
300
300
300
300
300
300
300
300
300
300
300.00001
300.00001
300.00001
300.00001
300.00001
300.00001
300.00001
300.00002
300.00002
300.00002
300.00002
300.00003
300.00003
300.00003
300.00004
300.00004
300.00004
300.00005
300.00005
300.00006
300.00007
300.00007
300.00008
300.00009
300.0001
300.0001
300.00011
300.00013
300.00014
300.00015
300.00016
300.00017
300.00019
300.0002
300.00022
300.00024
300.00025
300.00027
300.00029
300.00031
300.00033
300.00036
300.00038
300.0004
300.00043
300.00045
300.00048
300.0005
300.00053
300.00056
300.00059
300.00062
300.00064
300.00067
300.0007
300.00073
300.00075
300.00078
300.0008
300.00082
300.00084
300.00086
300.00087
300.00087
300.00087
300.00086
300.00084
300.00081
300.00077
300.00072
300.00064
300.00056
300.00045
300.00033
300.00018
300.00002
299.99983
299.99963
299.99941
299.99917
299.99892
299.99866
299.99838
299.9981
299.99781
299.99752
299.99723
299.99694
300
300
300
300
300
300
300
300
300
300
300
300
300
300
300
300
300
300
300
300
300
300
300
300
300
300
300
300.00001
300.00001
300.00001
300.00001
300.00001
300.00001
300.00001
300.00001
300.00001
300.00001
300.00002
300.00002
300.00002
300.00002
300.00002
300.00003
300.00003
300.00003
300.00003
300.00004
300.00004
300.00004
300.00005
300.00005
300.00006
300.00006
300.00007
300.00007
300.00008
300.00008
300.00009
300.00009
300.0001
300.00011
300.00012
300.00012
300.00013
300.00014
300.00015
300.00015
300.00016
300.00017
300.00018
300.00018
300.00019
300.0002
300.0002
300.0002
300.0002
300.0002
300.00019
300.00017
300.00015
300.00012
300.00008
300.00003
299.99997
299.99989
299.9998
299.99969
299.99956
299.99941
299.99924
299.99905
299.99884
299.99862
299.99838
299.99813
299.99786
299.99759
299.9973
299.99702
299.99673
300
300
300
300
300
300
300
300
300
300
300
300
300
300
300
300
300
300
300
300
300
300
300
300
300
300
300
300
300
300
300
300
300
300
300
300
300
300
300
300
300
300
300
300
300
300.00001
300.00001
300.00001
300.00001
300.00001
300.00001
300.00001
300.00001
300.00001
300.00001
300.00001
300.00001
300.00002
300.00002
300.00002
300.00002
300.00002
300.00002
300.00002
300.00003
300.00003
300.00003
300.00003
300.00003
300.00003
300.00004
300.00004
300.00004
300.00004
300.00004
300.00003
300.00003
300.00002
300
299.99999
299.99996
299.99993
299.99989
299.99984
299.99977
299.99969
299.9996
299.99949
299.99936
299.99921
299.99904
299.99886
299.99865
299.99843
299.99819
299.99794
299.99768
299.99741
299.99713
299.99685
300
300
300
300
300
300
300
300
300
300
300
300
300
300
300
300
300
300
300
300
300
300
300
300
300
300
300
300
300
300
300
300
300
300
300
300
300
300
300
300
300
300
300
300
300
300
300
300
300
300
300
300
300
300
300
300
300
300
300
300
300
300
300
300
300.00001
300.00001
300.00001
300.00001
300.00001
300.00001
300.00001
300.00001
300.00001
300
300
300
299.99999
299.99998
299.99997
299.99995
299.99993
299.9999
299.99986
299.99981
299.99975
299.99968
299.99959
299.99949
299.99937
299.99923
299.99907
299.9989
299.9987
299.99849
299.99826
299.99802
299.99777
299.9975
299.99723
299.99695
300
300
300
300
300
300
300
300
300
300
300
300
300
300
300
300
300
300
300
300
300
300
300
300
300
300
300
300
300
300
300
300
300
300
300
300
300
300
300
300
300
300
300
300
300
300
300
300
300
300
300
300
300
300
300
300
300
300
300
300
300
300
300
300
300
300
300.00001
300.00001
300.00001
300.00001
300.00001
300.00001
300
300
300
300
299.99999
299.99998
299.99997
299.99995
299.99993
299.9999
299.99986
299.99981
299.99975
299.99968
299.99959
299.99949
299.99937
299.99923
299.99907
299.9989
299.9987
299.99849
299.99826
299.99802
299.99777
299.9975
299.99723
299.99695
300
300
300
300
300
300
300
300
300
300
300
300
300
300
300
300
300
300
300
300
300
300
300
300
300
300
300
300
300
300
300
300
300
300
300
300
300
300
300
300
300
300
300
300
300
300
300
300.00001
300.00001
300.00001
300.00001
300.00001
300.00001
300.00001
300.00001
300.00001
300.00001
300.00001
300.00002
300.00002
300.00002
300.00002
300.00002
300.00002
300.00002
300.00003
300.00003
300.00003
300.00003
300.00003
300.00004
300.00004
300.00004
300.00004
300.00003
300.00003
300.00002
300.00002
300
299.99998
299.99996
299.99993
299.99989
299.99983
299.99977
299.99969
299.9996
299.99948
299.99935
299.99921
299.99904
299.99885
299.99865
299.99843
299.99819
299.99794
299.99768
299.99741
299.99713
299.99685
300
300
300
300
300
300
300
300
300
300
300
300
300
300
300
300
300
300
300
300
300
300
300
300
300
300
300
300
300.00001
300.00001
300.00001
300.00001
300.00001
300.00001
300.00001
300.00001
300.00001
300.00001
300.00002
300.00002
300.00002
300.00002
300.00002
300.00003
300.00003
300.00003
300.00004
300.00004
300.00004
300.00005
300.00005
300.00006
300.00006
300.00006
300.00007
300.00008
300.00008
300.00009
300.00009
300.0001
300.00011
300.00011
300.00012
300.00013
300.00014
300.00014
300.00015
300.00016
300.00017
300.00018
300.00018
300.00019
300.0002
300.0002
300.0002
300.0002
300.0002
300.00019
300.00017
300.00015
300.00012
300.00008
300.00003
299.99997
299.99989
299.9998
299.99968
299.99955
299.9994
299.99924
299.99905
299.99884
299.99862
299.99838
299.99813
299.99786
299.99758
299.9973
299.99702
299.99673
300
300
300
300
300
300
300
300
300
300
300
300
300
300.00001
300.00001
300.00001
300.00001
300.00001
300.00001
300.00002
300.00002
300.00002
300.00002
300.00002
300.00003
300.00003
300.00003
300.00004
300.00004
300.00005
300.00005
300.00006
300.00006
300.00007
300.00008
300.00009
300.00009
300.0001
300.00011
300.00012
300.00014
300.00015
300.00016
300.00017
300.00019
300.0002
300.00022
300.00024
300.00025
300.00027
300.00029
300.00031
300.00033
300.00035
300.00038
300.0004
300.00043
300.00045
300.00048
300.0005
300.00053
300.00056
300.00059
300.00061
300.00064
300.00067
300.0007
300.00073
300.00075
300.00078
300.0008
300.00082
300.00084
300.00086
300.00087
300.00087
300.00087
300.00086
300.00084
300.00081
300.00077
300.00071
300.00064
300.00056
300.00045
300.00032
300.00018
300.00002
299.99983
299.99963
299.99941
299.99917
299.99892
299.99866
299.99838
299.9981
299.99781
299.99752
299.99723
299.99694
300
300
300
300
300
300
300.00001
300.00001
300.00001
300.00002
300.00003
300.00003
300.00004
300.00005
300.00006
300.00007
300.00008
300.00009
300.0001
300.00011
300.00012
300.00014
300.00015
300.00017
300.00019
300.00021
300.00023
300.00025
300.00028
300.00031
300.00033
300.00037
300.0004
300.00043
300.00047
300.00051
300.00056
300.0006
300.00065
300.0007
300.00075
300.0008
300.00086
300.00092
300.00098
300.00104
300.00111
300.00118
300.00125
300.00132
300.00139
300.00147
300.00154
300.00162
300.0017
300.00178
300.00187
300.00195
300.00203
300.00212
300.0022
300.00228
300.00236
300.00244
300.00252
300.0026
300.00267
300.00274
300.00281
300.00287
300.00292
300.00297
300.00301
300.00304
300.00305
300.00306
300.00305
300.00303
300.003
300.00294
300.00287
300.00278
300.00267
300.00254
300.00238
300.00221
300.00202
300.00181
300.00158
300.00134
300.00109
300.00082
300.00055
300.00026
299.99998
299.99969
299.9994
299.99912
299.99884
299.99856
300
300
300
300.00001
300.00002
300.00003
300.00005
300.00008
300.00011
300.00015
300.00019
300.00023
300.00027
300.00032
300.00037
300.00042
300.00047
300.00053
300.00059
300.00065
300.00072
300.0008
300.00088
300.00096
300.00106
300.00116
300.00127
300.00138
300.0015
300.00163
300.00176
300.0019
300.00205
300.0022
300.00236
300.00252
300.00269
300.00286
300.00304
300.00322
300.00341
300.0036
300.0038
300.00399
300.0042
300.0044
300.0046
300.00481
300.00502
300.00523
300.00544
300.00566
300.00587
300.00608
300.00629
300.0065
300.00671
300.00691
300.00711
300.00731
300.0075
300.00768
300.00786
300.00802
300.00818
300.00833
300.00847
300.00859
300.0087
300.00879
300.00887
300.00893
300.00898
300.009
300.009
300.00899
300.00895
300.00889
300.00881
300.0087
300.00858
300.00843
300.00826
300.00808
300.00788
300.00766
300.00743
300.00718
300.00693
300.00667
300.0064
300.00613
300.00586
300.00559
300.00532
300.00505
300.00478
300.00453
300.00427
300.00404
300
300.00002
300.00005
300.0001
300.00018
300.00028
300.00041
300.00056
300.00073
300.00091
300.0011
300.00129
300.00149
300.0017
300.00192
300.00216
300.00241
300.00267
300.00295
300.00325
300.00358
300.00392
300.00428
300.00466
300.00506
300.00547
300.0059
300.00634
300.00679
300.00725
300.00772
300.0082
300.00868
300.00917
300.00966
300.01015
300.01064
300.01114
300.01163
300.01212
300.01261
300.0131
300.01359
300.01407
300.01455
300.01502
300.01549
300.01595
300.0164
300.01685
300.01729
300.01772
300.01813
300.01854
300.01894
300.01932
300.01969
300.02004
300.02037
300.02069
300.02099
300.02127
300.02152
300.02176
300.02197
300.02215
300.02231
300.02245
300.02255
300.02264
300.02269
300.02272
300.02272
300.0227
300.02266
300.02259
300.0225
300.02238
300.02225
300.0221
300.02194
300.02176
300.02157
300.02137
300.02115
300.02094
300.02071
300.02049
300.02026
300.02003
300.0198
300.01957
300.01934
300.01911
300.01888
300.01866
300.01844
300.01822
300.01802
300.01784
300.00008
300.00026
300.00053
300.00089
300.00135
300.00189
300.00251
300.0032
300.00393
300.0047
300.00552
300.00637
300.00725
300.00819
300.00917
300.0102
300.01128
300.0124
300.01356
300.01476
300.01597
300.0172
300.01844
300.01968
300.02091
300.02213
300.02334
300.02453
300.02569
300.02684
300.02795
300.02904
300.0301
300.03114
300.03215
300.03312
300.03408
300.035
300.0359
300.03677
300.03761
300.03843
300.03922
300.03998
300.04072
300.04144
300.04212
300.04278
300.04342
300.04403
300.04461
300.04516
300.04568
300.04618
300.04664
300.04708
300.04748
300.04785
300.0482
300.04851
300.04878
300.04903
300.04924
300.04943
300.04958
300.0497
300.0498
300.04987
300.04991
300.04993
300.04993
300.04991
300.04987
300.04981
300.04973
300.04965
300.04955
300.04944
300.04932
300.04919
300.04906
300.04892
300.04877
300.04862
300.04847
300.04832
300.04816
300.04801
300.04785
300.04769
300.04753
300.04737
300.04721
300.04705
300.04689
300.04673
300.04658
300.04642
300.04628
300.04618
300.00147
300.00308
300.00488
300.00689
300.00915
300.01168
300.0145
300.01761
300.021
300.02461
300.02838
300.03224
300.03612
300.03995
300.04368
300.04728
300.0507
300.05394
300.05699
300.05984
300.06249
300.06496
300.06725
300.06936
300.07131
300.07312
300.07478
300.07632
300.07774
300.07906
300.08027
300.0814
300.08245
300.08343
300.08434
300.08518
300.08597
300.08671
300.0874
300.08804
300.08864
300.0892
300.08972
300.09021
300.09066
300.09108
300.09147
300.09184
300.09218
300.09249
300.09278
300.09304
300.09328
300.0935
300.09369
300.09387
300.09403
300.09417
300.09429
300.09439
300.09448
300.09456
300.09462
300.09466
300.0947
300.09472
300.09473
300.09474
300.09474
300.09472
300.09471
300.09468
300.09465
300.09462
300.09458
300.09454
300.0945
300.09445
300.0944
300.09435
300.0943
300.09424
300.09419
300.09413
300.09407
300.09402
300.09396
300.0939
300.09384
300.09378
300.09372
300.09366
300.0936
300.09354
300.09348
300.09343
300.09337
300.09331
300.09325
300.0932
300.00147
300.00298
300.00457
300.00625
300.00805
300.00997
300.01204
300.01425
300.0166
300.01908
300.02167
300.02437
300.02714
300.02997
300.03284
300.03572
300.0386
300.04144
300.04423
300.04697
300.04963
300.0522
300.05467
300.05705
300.05933
300.06149
300.06355
300.06551
300.06736
300.0691
300.07075
300.0723
300.07376
300.07514
300.07643
300.07764
300.07878
300.07985
300.08086
300.0818
300.08269
300.08352
300.0843
300.08504
300.08573
300.08638
300.08699
300.08757
300.08811
300.08862
300.08909
300.08954
300.08996
300.09036
300.09073
300.09108
300.0914
300.09171
300.09199
300.09226
300.09251
300.09274
300.09295
300.09315
300.09333
300.0935
300.09365
300.0938
300.09393
300.09405
300.09416
300.09425
300.09434
300.09442
300.09449
300.09456
300.09461
300.09466
300.0947
300.09474
300.09477
300.09479
300.09481
300.09482
300.09483
300.09483
300.09483
300.09483
300.09482
300.09481
300.0948
300.09478
300.09476
300.09474
300.09471
300.09469
300.09466
300.09462
300.09459
300.09456
300.00009
300.00026
300.0005
300.00081
300.0012
300.00164
300.00214
300.0027
300.00329
300.00393
300.0046
300.0053
300.00603
300.00679
300.00757
300.00837
300.00919
300.01002
300.01087
300.01174
300.01261
300.01349
300.01438
300.01528
300.01617
300.01707
300.01796
300.01885
300.01974
300.02062
300.0215
300.02237
300.02323
300.02409
300.02494
300.02578
300.02661
300.02743
300.02824
300.02904
300.02982
300.0306
300.03137
300.03212
300.03286
300.03359
300.03431
300.03501
300.0357
300.03638
300.03704
300.03769
300.03833
300.03895
300.03955
300.04014
300.04072
300.04128
300.04182
300.04234
300.04285
300.04334
300.04381
300.04427
300.04471
300.04512
300.04552
300.04591
300.04627
300.04661
300.04694
300.04724
300.04753
300.0478
300.04805
300.04829
300.0485
300.0487
300.04889
300.04906
300.04921
300.04935
300.04947
300.04958
300.04968
300.04977
300.04984
300.0499
300.04995
300.04999
300.05002
300.05003
300.05004
300.05004
300.05004
300.05002
300.05
300.04997
300.04993
300.04992
300
300.00002
300.00005
300.00009
300.00016
300.00025
300.00035
300.00048
300.00063
300.00079
300.00096
300.00115
300.00134
300.00155
300.00176
300.00198
300.00221
300.00245
300.00269
300.00294
300.0032
300.00346
300.00373
300.004
300.00428
300.00456
300.00485
300.00515
300.00545
300.00575
300.00606
300.00637
300.00669
300.00701
300.00733
300.00766
300.00799
300.00832
300.00865
300.00899
300.00933
300.00967
300.01002
300.01037
300.01071
300.01106
300.01141
300.01177
300.01212
300.01247
300.01282
300.01318
300.01353
300.01388
300.01423
300.01458
300.01493
300.01527
300.01562
300.01595
300.01629
300.01662
300.01695
300.01727
300.01759
300.0179
300.0182
300.0185
300.01879
300.01907
300.01934
300.0196
300.01985
300.02009
300.02033
300.02055
300.02076
300.02096
300.02114
300.02132
300.02148
300.02163
300.02177
300.0219
300.02201
300.02212
300.02221
300.02229
300.02236
300.02242
300.02247
300.0225
300.02253
300.02255
300.02256
300.02256
300.02256
300.02254
300.02252
300.02251
300
300
300
300.00001
300.00002
300.00003
300.00005
300.00007
300.0001
300.00013
300.00017
300.00021
300.00026
300.0003
300.00036
300.00041
300.00047
300.00053
300.00059
300.00066
300.00073
300.0008
300.00087
300.00094
300.00102
300.0011
300.00118
300.00126
300.00134
300.00143
300.00152
300.00161
300.00171
300.0018
300.0019
300.002
300.00211
300.00221
300.00232
300.00243
300.00255
300.00266
300.00278
300.0029
300.00303
300.00315
300.00328
300.00341
300.00354
300.00367
300.00381
300.00395
300.00409
300.00423
300.00437
300.00452
300.00467
300.00481
300.00496
300.00511
300.00526
300.00542
300.00557
300.00572
300.00587
300.00602
300.00618
300.00633
300.00647
300.00662
300.00677
300.00691
300.00705
300.00719
300.00732
300.00745
300.00757
300.00769
300.00781
300.00792
300.00802
300.00811
300.0082
300.00828
300.00836
300.00843
300.00849
300.00854
300.00858
300.00862
300.00864
300.00866
300.00868
300.00868
300.00868
300.00867
300.00865
300.00863
300.0086
300.00857
300
300
300
300
300
300
300
300.00001
300.00001
300.00002
300.00002
300.00003
300.00004
300.00005
300.00006
300.00007
300.00008
300.00009
300.00011
300.00012
300.00014
300.00015
300.00017
300.00018
300.0002
300.00022
300.00024
300.00026
300.00028
300.0003
300.00032
300.00034
300.00037
300.00039
300.00042
300.00044
300.00047
300.0005
300.00053
300.00056
300.00059
300.00062
300.00065
300.00068
300.00072
300.00075
300.00079
300.00083
300.00087
300.00091
300.00095
300.00099
300.00104
300.00108
300.00113
300.00117
300.00122
300.00127
300.00132
300.00137
300.00142
300.00148
300.00153
300.00159
300.00164
300.0017
300.00176
300.00182
300.00187
300.00193
300.00199
300.00205
300.00211
300.00216
300.00222
300.00228
300.00233
300.00239
300.00244
300.00249
300.00253
300.00258
300.00262
300.00266
300.00269
300.00272
300.00274
300.00276
300.00278
300.00278
300.00279
300.00278
300.00278
300.00276
300.00274
300.00272
300.00269
300.00265
300.00261
300.00256
300
300
300
300
300
300
300
300
300
300
300
300
300
300.00001
300.00001
300.00001
300.00001
300.00001
300.00002
300.00002
300.00002
300.00002
300.00003
300.00003
300.00003
300.00004
300.00004
300.00004
300.00005
300.00005
300.00006
300.00006
300.00006
300.00007
300.00007
300.00008
300.00009
300.00009
300.0001
300.0001
300.00011
300.00012
300.00012
300.00013
300.00014
300.00015
300.00016
300.00016
300.00017
300.00018
300.00019
300.0002
300.00022
300.00023
300.00024
300.00025
300.00026
300.00028
300.00029
300.0003
300.00032
300.00033
300.00035
300.00036
300.00038
300.0004
300.00041
300.00043
300.00045
300.00047
300.00048
300.0005
300.00052
300.00054
300.00056
300.00058
300.0006
300.00061
300.00063
300.00065
300.00066
300.00068
300.00069
300.0007
300.00071
300.00072
300.00072
300.00072
300.00072
300.00071
300.0007
300.00069
300.00067
300.00065
300.00062
300.00058
300.00055
300.0005
300.00046
300.0004
300
300
300
300
300
300
300
300
300
300
300
300
300
300
300
300
300
300
300
300
300
300
300
300
300
300
300.00001
300.00001
300.00001
300.00001
300.00001
300.00001
300.00001
300.00001
300.00001
300.00001
300.00001
300.00001
300.00001
300.00002
300.00002
300.00002
300.00002
300.00002
300.00002
300.00002
300.00003
300.00003
300.00003
300.00003
300.00003
300.00003
300.00004
300.00004
300.00004
300.00004
300.00005
300.00005
300.00005
300.00005
300.00006
300.00006
300.00006
300.00007
300.00007
300.00008
300.00008
300.00008
300.00009
300.00009
300.0001
300.0001
300.00011
300.00011
300.00012
300.00012
300.00013
300.00013
300.00013
300.00014
300.00014
300.00014
300.00015
300.00015
300.00015
300.00014
300.00014
300.00013
300.00012
300.00011
300.0001
300.00008
300.00006
300.00003
300
299.99997
299.99993
299.99989
299.99984
299.99979
300
300
300
300
300
300
300
300
300
300
300
300
300
300
300
300
300
300
300
300
300
300
300
300
300
300
300
300
300
300
300
300
300
300
300
300
300
300
300
300
300
300
300
300
300
300
300
300
300
300
300
300.00001
300.00001
300.00001
300.00001
300.00001
300.00001
300.00001
300.00001
300.00001
300.00001
300.00001
300.00001
300.00001
300.00001
300.00001
300.00001
300.00001
300.00001
300.00002
300.00002
300.00002
300.00002
300.00002
300.00002
300.00002
300.00002
300.00002
300.00002
300.00002
300.00002
300.00002
300.00002
300.00002
300.00001
300.00001
300
300
299.99999
299.99997
299.99996
299.99994
299.99992
299.99989
299.99987
299.99983
299.9998
299.99976
299.99971
299.99967
300
300
300
300
300
300
300
300
300
300
300
300
300
300
300
300
300
300
300
300
300
300
300
300
300
300
300
300
300
300
300
300
300
300
300
300
300
300
300
300
300
300
300
300
300
300
300
300
300
300
300
300
300
300
300
300
300
300
300
300
300
300
300
300
300
300
300
300
300
300
300
300
300
300
300
300
300
300
300
300
300
300
300
299.99999
299.99999
299.99999
299.99998
299.99997
299.99996
299.99995
299.99993
299.99992
299.9999
299.99987
299.99985
299.99982
299.99978
299.99974
299.9997
299.99965
300
300
300
300
300
300
300
300
300
300
300
300
300
300
300
300
300
300
300
300
300
300
300
300
300
300
300
300
300
300
300
300
300
300
300
300
300
300
300
300
300
300
300
300
300
300
300
300
300
300
300
300
300
300
300
300
300
300
300
300
300
300
300
300
300
300
300
300
300
300
300
300
300
300
300
300
300
300
300
300
300
300
300
299.99999
299.99999
299.99998
299.99998
299.99997
299.99996
299.99995
299.99993
299.99992
299.9999
299.99987
299.99985
299.99982
299.99978
299.99974
299.9997
299.99965
300
300
300
300
300
300
300
300
300
300
300
300
300
300
300
300
300
300
300
300
300
300
300
300
300
300
300
300
300
300
300
300
300
300
300
300
300
300
300
300
300
300
300
300
300
300
300
300
300
300
300
300
300
300
300
300.00001
300.00001
300.00001
300.00001
300.00001
300.00001
300.00001
300.00001
300.00001
300.00001
300.00001
300.00001
300.00001
300.00001
300.00001
300.00002
300.00002
300.00002
300.00002
300.00002
300.00002
300.00002
300.00002
300.00002
300.00002
300.00002
300.00002
300.00002
300.00002
300.00001
300.00001
300
299.99999
299.99998
299.99997
299.99996
299.99994
299.99992
299.99989
299.99986
299.99983
299.9998
299.99976
299.99971
299.99966
300
300
300
300
300
300
300
300
300
300
300
300
300
300
300
300
300
300
300
300
300
300
300
300
300
300
300
300
300.00001
300.00001
300.00001
300.00001
300.00001
300.00001
300.00001
300.00001
300.00001
300.00001
300.00001
300.00001
300.00002
300.00002
300.00002
300.00002
300.00002
300.00002
300.00002
300.00003
300.00003
300.00003
300.00003
300.00003
300.00004
300.00004
300.00004
300.00004
300.00004
300.00005
300.00005
300.00005
300.00006
300.00006
300.00006
300.00007
300.00007
300.00007
300.00008
300.00008
300.00009
300.00009
300.0001
300.0001
300.0001
300.00011
300.00011
300.00012
300.00012
300.00013
300.00013
300.00014
300.00014
300.00014
300.00014
300.00014
300.00014
300.00014
300.00014
300.00013
300.00012
300.00011
300.0001
300.00008
300.00006
300.00003
300
299.99997
299.99993
299.99989
299.99984
299.99979
300
300
300
300
300
300
300
300
300
300
300
300
300
300.00001
300.00001
300.00001
300.00001
300.00001
300.00001
300.00002
300.00002
300.00002
300.00002
300.00003
300.00003
300.00003
300.00004
300.00004
300.00005
300.00005
300.00005
300.00006
300.00006
300.00007
300.00007
300.00008
300.00008
300.00009
300.0001
300.0001
300.00011
300.00012
300.00012
300.00013
300.00014
300.00015
300.00015
300.00016
300.00017
300.00018
300.00019
300.0002
300.00021
300.00022
300.00024
300.00025
300.00026
300.00027
300.00029
300.0003
300.00032
300.00033
300.00035
300.00036
300.00038
300.00039
300.00041
300.00043
300.00045
300.00046
300.00048
300.0005
300.00052
300.00054
300.00056
300.00058
300.0006
300.00061
300.00063
300.00065
300.00066
300.00068
300.00069
300.0007
300.00071
300.00072
300.00072
300.00072
300.00072
300.00071
300.0007
300.00069
300.00067
300.00064
300.00062
300.00058
300.00054
300.0005
300.00045
300.0004
300
300
300
300
300
300
300
300.00001
300.00001
300.00002
300.00002
300.00003
300.00004
300.00005
300.00006
300.00007
300.00008
300.00009
300.00011
300.00012
300.00014
300.00015
300.00017
300.00018
300.0002
300.00022
300.00024
300.00026
300.00028
300.0003
300.00032
300.00034
300.00037
300.00039
300.00042
300.00044
300.00047
300.0005
300.00052
300.00055
300.00058
300.00062
300.00065
300.00068
300.00072
300.00075
300.00079
300.00083
300.00087
300.00091
300.00095
300.00099
300.00103
300.00108
300.00113
300.00117
300.00122
300.00127
300.00132
300.00137
300.00142
300.00148
300.00153
300.00159
300.00164
300.0017
300.00176
300.00182
300.00187
300.00193
300.00199
300.00205
300.00211
300.00216
300.00222
300.00228
300.00233
300.00239
300.00244
300.00249
300.00253
300.00258
300.00262
300.00265
300.00269
300.00272
300.00274
300.00276
300.00277
300.00278
300.00279
300.00278
300.00278
300.00276
300.00274
300.00272
300.00269
300.00265
300.00261
300.00256
300
300
300
300.00001
300.00002
300.00003
300.00005
300.00007
300.0001
300.00013
300.00017
300.00021
300.00026
300.0003
300.00036
300.00041
300.00047
300.00053
300.00059
300.00066
300.00073
300.0008
300.00087
300.00094
300.00102
300.0011
300.00118
300.00126
300.00134
300.00143
300.00152
300.00161
300.00171
300.0018
300.0019
300.00201
300.00211
300.00222
300.00232
300.00243
300.00255
300.00266
300.00278
300.0029
300.00303
300.00315
300.00328
300.00341
300.00354
300.00367
300.00381
300.00395
300.00409
300.00423
300.00437
300.00452
300.00467
300.00481
300.00496
300.00511
300.00527
300.00542
300.00557
300.00572
300.00587
300.00603
300.00618
300.00633
300.00648
300.00662
300.00677
300.00691
300.00705
300.00719
300.00732
300.00745
300.00757
300.00769
300.00781
300.00792
300.00802
300.00811
300.0082
300.00829
300.00836
300.00843
300.00849
300.00854
300.00858
300.00862
300.00864
300.00866
300.00868
300.00868
300.00868
300.00867
300.00865
300.00863
300.0086
300.00857
300
300.00002
300.00005
300.00009
300.00016
300.00025
300.00035
300.00048
300.00063
300.00079
300.00096
300.00115
300.00134
300.00155
300.00176
300.00199
300.00221
300.00245
300.00269
300.00294
300.0032
300.00346
300.00373
300.004
300.00428
300.00457
300.00486
300.00515
300.00545
300.00575
300.00606
300.00637
300.00669
300.00701
300.00733
300.00766
300.00799
300.00832
300.00866
300.00899
300.00933
300.00968
300.01002
300.01037
300.01072
300.01107
300.01142
300.01177
300.01212
300.01247
300.01283
300.01318
300.01353
300.01388
300.01423
300.01458
300.01493
300.01528
300.01562
300.01596
300.01629
300.01663
300.01695
300.01727
300.01759
300.0179
300.0182
300.0185
300.01879
300.01907
300.01934
300.0196
300.01986
300.0201
300.02033
300.02055
300.02076
300.02096
300.02115
300.02132
300.02148
300.02163
300.02177
300.0219
300.02202