/*--------------------------------*- C++ -*----------------------------------*\
  =========                 |
  \\      /  F ield         | OpenFOAM: The Open Source CFD Toolbox
   \\    /   O peration     | Website:  https://openfoam.org
    \\  /    A nd           | Version:  7
     \\/     M anipulation  |
\*---------------------------------------------------------------------------*/
FoamFile
{
    version     2.0;
    format      ascii;
    class       surfaceScalarField;
    location    "2750/water";
    object      phi;
}
// * * * * * * * * * * * * * * * * * * * * * * * * * * * * * * * * * * * * * //

dimensions      [1 0 -1 0 0 0 0];

internalField   nonuniform List<scalar> 
156660
(
9.9057239e-05
6.0010402e-06
6.0528092e-06
8.6847498e-05
6.0555113e-06
6.1542307e-06
7.5687891e-05
5.5111362e-06
5.6484701e-06
6.5441704e-05
5.0404181e-06
5.2057689e-06
5.6267661e-05
4.4956436e-06
4.6783992e-06
4.8318019e-05
3.8797648e-06
4.0698777e-06
4.1624776e-05
3.2524449e-06
3.4407981e-06
3.6124897e-05
2.660462e-06
2.839417e-06
3.1692235e-05
2.1345127e-06
2.2981489e-06
2.8162841e-05
1.6926975e-06
1.8366964e-06
2.5361437e-05
1.3399933e-06
1.4614113e-06
2.3124664e-05
1.0698477e-06
1.1669256e-06
2.1315127e-05
8.687542e-07
9.4078227e-07
1.9825714e-05
7.2110063e-07
7.6831275e-07
1.8577278e-05
6.1248246e-07
6.3595306e-07
1.7513255e-05
5.3125218e-07
5.3277149e-07
1.6593744e-05
4.6879725e-07
4.5071348e-07
1.5790433e-05
4.1913717e-07
3.8417387e-07
1.5082784e-05
3.7829069e-07
3.2935849e-07
1.4455417e-05
3.4367128e-07
2.8369563e-07
1.3896409e-05
3.1361407e-07
2.4539333e-07
1.339622e-05
2.8704448e-07
2.1314455e-07
1.2947015e-05
2.6326034e-07
1.8594511e-07
1.2542237e-05
2.4179368e-07
1.6298461e-07
1.2176318e-05
2.2232207e-07
1.4359689e-07
1.1844484e-05
2.0461482e-07
1.2721878e-07
1.1542609e-05
1.8849491e-07
1.1337971e-07
1.1267116e-05
1.7381573e-07
1.0167794e-07
1.1014892e-05
1.6046269e-07
9.1760822e-08
1.0783252e-05
1.4833968e-07
8.33006e-08
1.0569851e-05
1.3734904e-07
7.6052142e-08
1.0372614e-05
1.2738864e-07
6.9848297e-08
1.0189731e-05
1.183681e-07
6.4514815e-08
1.001963e-05
1.1020446e-07
5.9896633e-08
9.8609388e-06
1.0281922e-07
5.5871635e-08
9.7124594e-06
9.613798e-08
5.2341351e-08
9.5731439e-06
9.0091177e-08
4.9224348e-08
9.4420759e-06
8.4614482e-08
4.6453574e-08
9.3184531e-06
7.9648679e-08
4.3974105e-08
9.2015723e-06
7.5139737e-08
4.1741086e-08
9.0908166e-06
7.1038155e-08
3.9717555e-08
8.9856431e-06
6.7301147e-08
3.7872312e-08
8.8855708e-06
6.3894247e-08
3.6178153e-08
8.7901757e-06
6.078007e-08
3.461493e-08
8.6990829e-06
5.7926182e-08
3.3166642e-08
8.6119591e-06
5.5303737e-08
3.182012e-08
8.5285072e-06
5.2887434e-08
3.0564412e-08
8.4484618e-06
5.065507e-08
2.9390267e-08
8.3715848e-06
4.8587069e-08
2.8290017e-08
8.2976614e-06
4.6666164e-08
2.7257216e-08
8.2264975e-06
4.4877472e-08
2.6286422e-08
8.1579202e-06
4.3208771e-08
2.5368522e-08
8.0917731e-06
4.1649042e-08
2.4498029e-08
8.0279108e-06
4.0186969e-08
2.3675348e-08
7.9662005e-06
3.8812678e-08
2.2897508e-08
7.9065219e-06
3.7518406e-08
2.2160225e-08
7.8487639e-06
3.6297845e-08
2.1460151e-08
7.7928241e-06
3.5145192e-08
2.0794582e-08
7.7386084e-06
3.4054686e-08
2.0161168e-08
7.6860293e-06
3.302136e-08
1.9557679e-08
7.6350062e-06
3.2040794e-08
1.8982257e-08
7.5854641e-06
3.1109055e-08
1.8433061e-08
7.537333e-06
3.0222601e-08
1.7908495e-08
7.4905478e-06
2.9378239e-08
1.7407021e-08
7.4450476e-06
2.8572994e-08
1.6927193e-08
7.4007755e-06
2.7804236e-08
1.6467767e-08
7.3576783e-06
2.7069622e-08
1.6027646e-08
7.3157056e-06
2.6367076e-08
1.560561e-08
7.2748103e-06
2.5694659e-08
1.5200653e-08
7.2349479e-06
2.5050545e-08
1.4811825e-08
7.1960766e-06
2.4433086e-08
1.4438191e-08
7.158157e-06
2.3840677e-08
1.4078947e-08
7.1211518e-06
2.3271946e-08
1.3733295e-08
7.0850258e-06
2.2725489e-08
1.3400516e-08
7.0497456e-06
2.2200213e-08
1.3079907e-08
7.0152798e-06
2.1694933e-08
1.2770866e-08
6.9815985e-06
2.1208569e-08
1.2472736e-08
6.9486733e-06
2.0740232e-08
1.218494e-08
6.9164775e-06
2.0288976e-08
1.1906813e-08
6.8849857e-06
1.9853944e-08
1.1637839e-08
6.8541739e-06
1.9434379e-08
1.1377462e-08
6.8240193e-06
1.9029445e-08
1.1125098e-08
6.7945006e-06
1.8638464e-08
1.0880251e-08
6.7655975e-06
1.8260748e-08
1.0642319e-08
6.7372912e-06
1.7895543e-08
1.0410769e-08
6.709564e-06
1.7542093e-08
1.0185115e-08
6.6823996e-06
1.7199641e-08
9.9648865e-09
6.6557825e-06
1.6867266e-08
9.749838e-09
6.6296983e-06
1.6544119e-08
9.5399694e-09
6.6041331e-06
1.6229277e-08
9.3359763e-09
6.5790714e-06
1.5921979e-08
9.1396818e-09
6.554494e-06
1.5622357e-08
8.9550893e-09
6.5303708e-06
1.5332541e-08
8.7906571e-09
6.5066467e-06
1.5060466e-08
8.6635943e-09
6.4832094e-06
1.4827816e-08
8.609514e-09
6.4598103e-06
1.4693114e-08
8.7060392e-09
6.4358388e-06
1.4826428e-08
9.1451437e-09
6.4096302e-06
1.5741759e-08
1.0466755e-08
6.3782855e-06
1.8026568e-08
1.3318237e-08
3.2300234e-08
2.7923566e-08
0.00010646494
4.1872385e-06
6.4599816e-06
0.0001002019
5.695418e-06
6.6231353e-06
9.3659588e-05
5.7790389e-06
6.2744098e-06
8.7011589e-05
5.6514782e-06
6.0369387e-06
8.0422927e-05
5.366912e-06
5.7173941e-06
7.4094022e-05
4.9022832e-06
5.3063862e-06
6.8167026e-05
4.3278135e-06
4.8516272e-06
6.2722565e-05
3.717891e-06
4.387032e-06
5.7799049e-05
3.1243144e-06
3.9337145e-06
5.3403345e-05
2.5820689e-06
3.5063329e-06
4.9517402e-05
2.1121062e-06
3.1138299e-06
4.6105483e-05
1.7220197e-06
2.7597474e-06
4.3121558e-05
1.4089355e-06
2.4437429e-06
4.0515558e-05
1.1637552e-06
2.163346e-06
3.8237948e-05
9.748585e-07
1.9152336e-06
3.6242683e-05
8.3055977e-07
1.6959573e-06
3.4488759e-05
7.2043699e-07
1.5022849e-06
3.2940716e-05
6.3586297e-07
1.3313172e-06
3.1568463e-05
5.7005007e-07
1.1804931e-06
3.0346733e-05
5.1784897e-07
1.0475522e-06
2.9254398e-05
4.7545956e-07
9.3049031e-07
2.8273782e-05
4.4013958e-07
8.2752024e-07
2.7390054e-05
4.0994893e-07
7.370401e-07
2.6590699e-05
3.8353955e-07
6.5760856e-07
2.5865102e-05
3.5998891e-07
5.8793073e-07
2.5204197e-05
3.3867632e-07
5.2684261e-07
2.4600205e-05
3.1918359e-07
4.733035e-07
2.4046429e-05
3.0120193e-07
4.2639018e-07
2.3537073e-05
2.8455206e-07
3.8526715e-07
2.3067119e-05
2.6911099e-07
3.4918236e-07
2.2632208e-05
2.5478165e-07
3.1747786e-07
2.2228528e-05
2.4147382e-07
2.895953e-07
2.1852744e-05
2.2911074e-07
2.6504121e-07
2.1501947e-05
2.1762893e-07
2.4337257e-07
2.1173591e-05
2.0696951e-07
2.2420568e-07
2.0865444e-05
1.9707567e-07
2.0720868e-07
2.0575549e-05
1.8789254e-07
1.9209398e-07
2.0302183e-05
1.793672e-07
1.7861343e-07
2.0043829e-05
1.7144909e-07
1.6655321e-07
1.979915e-05
1.6408984e-07
1.5572945e-07
1.956696e-05
1.5724382e-07
1.4598406e-07
1.934621e-05
1.5086893e-07
1.3718219e-07
1.9135969e-05
1.449265e-07
1.2920882e-07
1.8935407e-05
1.3937907e-07
1.2196308e-07
1.8743783e-05
1.3419233e-07
1.1535764e-07
1.8560435e-05
1.2933511e-07
1.0931729e-07
1.8384766e-05
1.2477909e-07
1.0377714e-07
1.8216241e-05
1.204985e-07
9.868128e-08
1.8054377e-05
1.1647011e-07
9.3981322e-08
1.7898734e-05
1.1267289e-07
8.9635404e-08
1.7748917e-05
1.0908822e-07
8.560702e-08
1.7604563e-05
1.0570002e-07
8.1862417e-08
1.7465345e-05
1.024934e-07
7.8373266e-08
1.7330962e-05
9.9453007e-08
7.5116984e-08
1.7201138e-05
9.6564426e-08
7.2072715e-08
1.7075619e-05
9.3816664e-08
6.9221134e-08
1.695417e-05
9.1201121e-08
6.6545105e-08
1.6836577e-05
8.87091e-08
6.4029543e-08
1.6722638e-05
8.6331964e-08
6.1661047e-08
1.661217e-05
8.4061763e-08
5.9427692e-08
1.6505001e-05
8.1891518e-08
5.7318812e-08
1.640097e-05
7.9814902e-08
5.5324843e-08
1.6299929e-05
7.782614e-08
5.3437134e-08
1.620174e-05
7.5919867e-08
5.1647916e-08
1.6106272e-05
7.4091006e-08
4.9950102e-08
1.6013404e-05
7.2334972e-08
4.8337395e-08
1.5923022e-05
7.0647721e-08
4.6803886e-08
1.5835019e-05
6.9025723e-08
4.5344268e-08
1.5749294e-05
6.7465517e-08
4.3953693e-08
1.5665753e-05
6.5963758e-08
4.2627701e-08
1.5584307e-05
6.4517345e-08
4.1362207e-08
1.5504871e-05
6.3123406e-08
4.0153367e-08
1.5427365e-05
6.1779299e-08
3.899782e-08
1.5351716e-05
6.0482551e-08
3.7892286e-08
1.5277852e-05
5.9230802e-08
3.6833855e-08
1.5205705e-05
5.802197e-08
3.5819716e-08
1.5135212e-05
5.6854004e-08
3.4847339e-08
1.5066313e-05
5.5724963e-08
3.391432e-08
1.499895e-05
5.4633114e-08
3.3018411e-08
1.493307e-05
5.3576734e-08
3.2157447e-08
1.4868621e-05
5.2554193e-08
3.132942e-08
1.4805554e-05
5.1563963e-08
3.0532454e-08
1.4743823e-05
5.0604485e-08
2.9764699e-08
1.4683386e-05
4.9674271e-08
2.9024384e-08
1.4624199e-05
4.8771823e-08
2.8309863e-08
1.4566226e-05
4.78955e-08
2.7619577e-08
1.4509431e-05
4.7043512e-08
2.6952007e-08
1.4453778e-05
4.6214114e-08
2.6305794e-08
1.4399237e-05
4.5405385e-08
2.567987e-08
1.4345777e-05
4.4615685e-08
2.5073742e-08
1.4293367e-05
4.3844236e-08
2.4487699e-08
1.4241972e-05
4.3092883e-08
2.3923758e-08
1.4191548e-05
4.2369918e-08
2.338713e-08
1.4142019e-05
4.1699318e-08
2.288962e-08
1.4093249e-05
4.1141662e-08
2.2456625e-08
1.4044951e-05
4.0844648e-08
2.2146548e-08
1.3996485e-05
4.11692e-08
2.2123053e-08
1.3946229e-05
4.3012304e-08
2.2985408e-08
1.389015e-05
4.8540252e-08
2.5565803e-08
6.3281566e-08
5.0000855e-08
0.00010603565
2.7876425e-06
6.4750379e-06
0.00010074799
4.4145413e-06
6.5685292e-06
9.5493515e-05
4.8594028e-06
6.1741158e-06
9.0256432e-05
4.930369e-06
5.9581921e-06
8.5101366e-05
4.8311767e-06
5.6908012e-06
8.0102875e-05
4.5561761e-06
5.3445981e-06
7.5322251e-05
4.1469521e-06
4.9614853e-06
7.0803266e-05
3.6678926e-06
4.5689838e-06
6.6576264e-05
3.1701903e-06
4.1811255e-06
6.2660725e-05
2.690011e-06
3.8075976e-06
5.9065443e-05
2.2519319e-06
3.4554566e-06
5.5788936e-05
1.8697304e-06
3.1287958e-06
5.2820978e-05
1.5477473e-06
2.8291458e-06
5.014479e-05
1.2836302e-06
2.5563139e-06
4.7739304e-05
1.07123e-06
2.3091141e-06
4.5581183e-05
9.0281504e-07
2.0858661e-06
4.3646423e-05
7.7048782e-07
1.884709e-06
4.1911533e-05
6.6697375e-07
1.7037793e-06
4.0354306e-05
5.85982e-07
1.541295e-06
3.8954268e-05
5.2230225e-07
1.3955849e-06
3.769288e-05
4.7175607e-07
1.265091e-06
3.6553576e-05
4.3107983e-07
1.1483634e-06
3.552169e-05
3.9778207e-07
1.0440533e-06
3.4584322e-05
3.6999885e-07
9.5090833e-07
3.3730181e-05
3.4635984e-07
8.6777018e-07
3.2949411e-05
3.2587762e-07
7.9356872e-07
3.2233419e-05
3.0784049e-07
7.2733485e-07
3.1574711e-05
2.9172985e-07
6.6818103e-07
3.0966769e-05
2.7719267e-07
6.1530126e-07
3.0403928e-05
2.6398103e-07
5.679702e-07
2.9881258e-05
2.5190847e-07
5.2554313e-07
2.9394455e-05
2.4082712e-07
4.8744999e-07
2.8939761e-05
2.3062159e-07
4.5318326e-07
2.8513895e-05
2.212015e-07
4.2229385e-07
2.8113985e-05
2.1249191e-07
3.9438673e-07
2.7737518e-05
2.0442797e-07
3.6911491e-07
2.7382285e-05
1.9695193e-07
3.4617387e-07
2.7046344e-05
1.9001177e-07
3.252968e-07
2.6727982e-05
1.8355995e-07
3.0625044e-07
2.6425689e-05
1.7755271e-07
2.8883085e-07
2.6138123e-05
1.7195002e-07
2.7285987e-07
2.5864094e-05
1.6671515e-07
2.5818184e-07
2.5602546e-05
1.6181452e-07
2.4466092e-07
2.535253e-05
1.572171e-07
2.3217766e-07
2.51132e-05
1.5289441e-07
2.2062727e-07
2.4883797e-05
1.4882096e-07
2.0991772e-07
2.4663634e-05
1.4497364e-07
1.999681e-07
2.4452094e-05
1.4133181e-07
1.9070706e-07
2.4248615e-05
1.3787694e-07
1.8207151e-07
2.405269e-05
1.3459264e-07
1.7400569e-07
2.3863854e-05
1.314646e-07
1.6645988e-07
2.3681684e-05
1.2848057e-07
1.5938926e-07
2.3505794e-05
1.256292e-07
1.5275413e-07
2.3335829e-05
1.2289871e-07
1.465197e-07
2.3171462e-05
1.2027636e-07
1.4065461e-07
2.3012394e-05
1.1775473e-07
1.3513022e-07
2.2858345e-05
1.1532971e-07
1.2992044e-07
2.2709057e-05
1.1299536e-07
1.2500174e-07
2.2564291e-05
1.1074516e-07
1.2035286e-07
2.2423824e-05
1.0857344e-07
1.1595454e-07
2.2287451e-05
1.0647548e-07
1.1178924e-07
2.2154978e-05
1.04447e-07
1.0784079e-07
2.2026226e-05
1.0248418e-07
1.0409458e-07
2.1901025e-05
1.0058352e-07
1.0053714e-07
2.1779218e-05
9.8741549e-08
9.7156156e-08
2.1660658e-05
9.69549e-08
9.3940262e-08
2.1545205e-05
9.5221254e-08
9.0879028e-08
2.1432729e-05
9.3538821e-08
8.7962806e-08
2.1323107e-05
9.1905316e-08
8.5182585e-08
2.1216222e-05
9.0318502e-08
8.2530169e-08
2.1111965e-05
8.8776416e-08
7.9997921e-08
2.1010233e-05
8.7277103e-08
7.7578653e-08
2.0910927e-05
8.5818949e-08
7.5265845e-08
2.0813956e-05
8.4400337e-08
7.30534e-08
2.0719232e-05
8.3019674e-08
7.093563e-08
2.0626671e-05
8.1675611e-08
6.8907193e-08
2.0536195e-05
8.0366795e-08
6.6963098e-08
2.0447729e-05
7.9091986e-08
6.5098748e-08
2.0361203e-05
7.784983e-08
6.3309782e-08
2.0276548e-05
7.6639195e-08
6.1592055e-08
2.0193702e-05
7.5458998e-08
5.994174e-08
2.0112602e-05
7.4307945e-08
5.8355226e-08
2.0033193e-05
7.3184903e-08
5.6829049e-08
1.9955419e-05
7.2088593e-08
5.5359966e-08
1.9879228e-05
7.1017619e-08
5.3944848e-08
1.9804572e-05
6.9970426e-08
5.2580724e-08
1.9731406e-05
6.8945276e-08
5.1264801e-08
1.9659685e-05
6.7940149e-08
4.9994408e-08
1.9589371e-05
6.6953024e-08
4.8767032e-08
1.9520423e-05
6.5982354e-08
4.758054e-08
1.9452807e-05
6.502802e-08
4.6433117e-08
1.9386482e-05
6.4094098e-08
4.5323731e-08
1.9321404e-05
6.3194694e-08
4.4253063e-08
1.9257511e-05
6.2366334e-08
4.322521e-08
1.9194705e-05
6.1695155e-08
4.2253115e-08
1.9132798e-05
6.1374041e-08
4.1377375e-08
1.9071394e-05
6.1822376e-08
4.0750664e-08
1.9009424e-05
6.3924734e-08
4.1057622e-08
1.8944661e-05
6.9304691e-08
4.3998848e-08
7.9170911e-08
7.4661534e-08
0.0001054937
1.9169871e-06
6.4880407e-06
0.00010005365
3.2729596e-06
6.5816334e-06
9.4926077e-05
3.8288995e-06
6.1580776e-06
8.9946373e-05
3.9838108e-06
5.9262629e-06
8.5163276e-05
3.9595077e-06
5.6547657e-06
8.0619137e-05
3.7899368e-06
5.3103784e-06
7.6329462e-05
3.5015547e-06
4.9350725e-06
7.230016e-05
3.1412013e-06
4.5559928e-06
6.8534206e-05
2.7514802e-06
4.1846641e-06
6.5032983e-05
2.3633493e-06
3.8278852e-06
6.1795789e-05
1.9984143e-06
3.490711e-06
5.8818843e-05
1.670376e-06
3.176301e-06
5.6094718e-05
1.3858295e-06
2.886043e-06
5.3612488e-05
1.1457945e-06
2.6200649e-06
5.1358373e-05
9.476412e-07
2.3777043e-06
4.9316593e-05
7.8676786e-07
2.1578272e-06
4.7470246e-05
6.5779547e-07
1.9590391e-06
4.5802069e-05
5.5532543e-07
1.7798252e-06
4.4295042e-05
4.7437118e-07
1.6186378e-06
4.293283e-05
4.1056666e-07
1.473948e-06
4.1700078e-05
3.6023237e-07
1.3442759e-06
4.0582591e-05
3.2035744e-07
1.2282094e-06
3.956742e-05
2.8853735e-07
1.1244154e-06
3.8642881e-05
2.6289065e-07
1.0316467e-06
3.7798527e-05
2.4196986e-07
9.4874401e-07
3.7025076e-05
2.2467702e-07
8.7465169e-07
3.6314324e-05
2.10189e-07
8.084041e-07
3.5659057e-05
1.9788607e-07
7.4911043e-07
3.5052961e-05
1.8731584e-07
6.9597281e-07
3.4490519e-05
1.7814873e-07
6.4827382e-07
3.3966922e-05
1.701317e-07
6.0537437e-07
3.3477973e-05
1.6306729e-07
5.6670866e-07
3.3020016e-05
1.5680295e-07
5.3177539e-07
3.2589865e-05
1.5122052e-07
5.0013242e-07
3.218474e-05
1.4622561e-07
4.7139137e-07
3.1802215e-05
1.4174072e-07
4.4521232e-07
3.1440168e-05
1.3770095e-07
4.212981e-07
3.1096739e-05
1.3405092e-07
3.9938923e-07
3.0770297e-05
1.3074293e-07
3.7925955e-07
3.0459402e-05
1.2773516e-07
3.6071195e-07
3.0162787e-05
1.2499093e-07
3.435748e-07
2.9879325e-05
1.2247786e-07
3.2769853e-07
2.960802e-05
1.2016734e-07
3.1295272e-07
2.934798e-05
1.1803381e-07
2.9922352e-07
2.9098408e-05
1.1605463e-07
2.8641139e-07
2.885859e-05
1.1420983e-07
2.7442905e-07
2.8627882e-05
1.1248191e-07
2.6319999e-07
2.8405701e-05
1.1085559e-07
2.5265684e-07
2.819152e-05
1.0931755e-07
2.4274022e-07
2.7984859e-05
1.0785648e-07
2.3339755e-07
2.7785279e-05
1.0646279e-07
2.2458211e-07
2.7592378e-05
1.0512868e-07
2.1625214e-07
2.740579e-05
1.0384734e-07
2.0837037e-07
2.7225174e-05
1.0261117e-07
2.0090361e-07
2.705022e-05
1.0140744e-07
1.9382258e-07
2.6880641e-05
1.0023381e-07
1.8710042e-07
2.6716166e-05
9.909236e-08
1.8071224e-07
2.6556546e-05
9.7979995e-08
1.746356e-07
2.6401548e-05
9.689252e-08
1.6885015e-07
2.6250957e-05
9.5827081e-08
1.6333743e-07
2.610457e-05
9.478167e-08
1.5808045e-07
2.5962199e-05
9.3754709e-08
1.5306363e-07
2.5823666e-05
9.2744867e-08
1.4827259e-07
2.5688804e-05
9.1751009e-08
1.4369414e-07
2.5557458e-05
9.0771758e-08
1.3931601e-07
2.5429481e-05
8.9805182e-08
1.3512691e-07
2.5304734e-05
8.8851456e-08
1.3111645e-07
2.5183087e-05
8.7911196e-08
1.2727467e-07
2.5064416e-05
8.6983914e-08
1.2359244e-07
2.4948604e-05
8.6068918e-08
1.2006122e-07
2.4835542e-05
8.5165782e-08
1.1667303e-07
2.4725124e-05
8.427434e-08
1.1342048e-07
2.4617252e-05
8.3394278e-08
1.1029657e-07
2.4511832e-05
8.2525458e-08
1.072948e-07
2.4408775e-05
8.166773e-08
1.04409e-07
2.4307997e-05
8.0820967e-08
1.0163342e-07
2.4209416e-05
7.9985037e-08
9.8962649e-08
2.4112956e-05
7.915974e-08
9.6391539e-08
2.4018546e-05
7.8345016e-08
9.3915303e-08
2.3926115e-05
7.7540692e-08
9.1529304e-08
2.3835598e-05
7.6746558e-08
8.9229275e-08
2.3746933e-05
7.5962305e-08
8.7011041e-08
2.366006e-05
7.5187624e-08
8.4870728e-08
2.3574922e-05
7.4421968e-08
8.280453e-08
2.3491466e-05
7.3664614e-08
8.0808925e-08
2.3409641e-05
7.2914617e-08
7.8880361e-08
2.33294e-05
7.2170689e-08
7.7015508e-08
2.3250698e-05
7.1431316e-08
7.5211029e-08
2.3173493e-05
7.0694837e-08
7.3463633e-08
2.3097745e-05
6.9960221e-08
7.177008e-08
2.3023418e-05
6.9227979e-08
7.0127013e-08
2.2950477e-05
6.8503517e-08
6.8531201e-08
2.2878889e-05
6.7802874e-08
6.6979699e-08
2.2808619e-05
6.7165057e-08
6.5471565e-08
2.2739625e-05
6.6675261e-08
6.4013331e-08
2.267185e-05
6.6507069e-08
6.2642291e-08
2.2605149e-05
6.6990736e-08
6.1532374e-08
2.2538888e-05
6.8686021e-08
6.1499903e-08
2.2471121e-05
7.2226956e-08
6.4845113e-08
7.6722844e-08
9.8461321e-08
0.0001051979
1.3340884e-06
6.4961222e-06
9.9496561e-05
2.3731022e-06
6.6011947e-06
9.4262459e-05
2.9019223e-06
6.1610799e-06
8.9251186e-05
3.0856642e-06
5.9094196e-06
8.4493498e-05
3.0947347e-06
5.6224614e-06
8.0033635e-05
2.9846656e-06
5.2651341e-06
7.5876907e-05
2.7790155e-06
4.8792667e-06
7.2014635e-05
2.5106844e-06
4.4927895e-06
6.8436293e-05
2.2128728e-06
4.1169489e-06
6.5131387e-05
1.9107259e-06
3.7575291e-06
6.208941e-05
1.621732e-06
3.4186596e-06
5.9299432e-05
1.3573878e-06
3.1029661e-06
5.6749589e-05
1.1240344e-06
2.8116387e-06
5.4426788e-05
9.2377948e-07
2.5448158e-06
5.2316754e-05
7.5572801e-07
2.3019466e-06
5.0404313e-05
6.1717856e-07
2.0820302e-06
4.8673788e-05
5.0454352e-07
1.8837772e-06
4.7109414e-05
4.1397182e-07
1.7057274e-06
4.5695713e-05
3.4173651e-07
1.5463363e-06
4.4417792e-05
2.8445146e-07
1.4040359e-06
4.3261575e-05
2.3917114e-07
1.2772781e-06
4.2213953e-05
2.0341506e-07
1.1645652e-06
4.1262871e-05
1.7514742e-07
1.0644719e-06
4.039737e-05
1.5273234e-07
9.7565898e-07
3.9607583e-05
1.3487528e-07
8.9688145e-07
3.8884688e-05
1.2055568e-07
8.2701639e-07
3.8220848e-05
1.0901092e-07
7.6501855e-07
3.7609155e-05
9.9633867e-08
7.0994487e-07
3.7043542e-05
9.1977438e-08
6.6095088e-07
3.6518702e-05
8.570582e-08
6.1728287e-07
3.6030009e-05
8.0552375e-08
5.7827307e-07
3.5573433e-05
7.6308278e-08
5.4333412e-07
3.5145475e-05
7.2811284e-08
5.1195029e-07
3.4743091e-05
6.9934147e-08
4.8367024e-07
3.4363641e-05
6.7575436e-08
4.5810065e-07
3.4004828e-05
6.5652882e-08
4.3489995e-07
3.3664659e-05
6.4098607e-08
4.137721e-07
3.3341393e-05
6.2855935e-08
3.9446095e-07
3.3033513e-05
6.1877029e-08
3.7674529e-07
3.2739693e-05
6.112111e-08
3.6043424e-07
3.2458768e-05
6.0553078e-08
3.4536329e-07
3.2189712e-05
6.0142663e-08
3.3139056e-07
3.1931622e-05
5.9863661e-08
3.1839376e-07
3.1683696e-05
5.9693149e-08
3.0626737e-07
3.1445219e-05
5.9611218e-08
2.9492012e-07
3.1215555e-05
5.9600603e-08
2.8427317e-07
3.0994132e-05
5.9646538e-08
2.7425807e-07
3.0780436e-05
5.9736165e-08
2.6481537e-07
3.0574002e-05
5.9858653e-08
2.5589332e-07
3.0374407e-05
6.0004937e-08
2.4744661e-07
3.0181267e-05
6.0167667e-08
2.3943548e-07
2.9994229e-05
6.034125e-08
2.3182487e-07
2.9812971e-05
6.0521775e-08
2.2458374e-07
2.9637193e-05
6.0704478e-08
2.1768455e-07
2.9466629e-05
6.0867292e-08
2.1110459e-07
2.9301024e-05
6.1016978e-08
2.048218e-07
2.914014e-05
6.1160862e-08
1.9881568e-07
2.8983756e-05
6.1294904e-08
1.9306837e-07
2.8831669e-05
6.1415452e-08
1.8756389e-07
2.8683688e-05
6.1520956e-08
1.8228763e-07
2.8539633e-05
6.161055e-08
1.7722634e-07
2.8399336e-05
6.1683777e-08
1.7236782e-07
2.8262639e-05
6.174048e-08
1.6770089e-07
2.8129394e-05
6.1780693e-08
1.6321521e-07
2.7999461e-05
6.1803884e-08
1.5890121e-07
2.7872709e-05
6.180738e-08
1.5475034e-07
2.7749012e-05
6.179356e-08
1.5075441e-07
2.7628253e-05
6.1764796e-08
1.4690557e-07
2.7510319e-05
6.1721015e-08
1.4319664e-07
2.7395105e-05
6.166212e-08
1.3962085e-07
2.728251e-05
6.1588618e-08
1.3617201e-07
2.7172439e-05
6.1501059e-08
1.3284425e-07
2.7064802e-05
6.1399955e-08
1.2963193e-07
2.6959511e-05
6.1285938e-08
1.2652992e-07
2.6856486e-05
6.115951e-08
1.2353329e-07
2.6755649e-05
6.1021318e-08
1.206373e-07
2.6656924e-05
6.0871875e-08
1.1783763e-07
2.6560242e-05
6.0711699e-08
1.1513014e-07
2.6465535e-05
6.0541377e-08
1.1251074e-07
2.6372738e-05
6.0361346e-08
1.0997579e-07
2.6281791e-05
6.0171933e-08
1.0752158e-07
2.6192636e-05
5.9973574e-08
1.0514473e-07
2.6105215e-05
5.9766346e-08
1.0284182e-07
2.6019477e-05
5.9550291e-08
1.0060971e-07
2.5935371e-05
5.9325157e-08
9.8445292e-08
2.585285e-05
5.909051e-08
9.6345388e-08
2.5771868e-05
5.8845463e-08
9.4306934e-08
2.5692384e-05
5.8589014e-08
9.2326733e-08
2.5614357e-05
5.8319829e-08
9.0401436e-08
2.5537753e-05
5.8037058e-08
8.8527324e-08
2.5462539e-05
5.7741633e-08
8.6700205e-08
2.5388689e-05
5.743839e-08
8.4915161e-08
2.5316184e-05
5.7141415e-08
8.3166631e-08
2.5245017e-05
5.6882577e-08
8.1449648e-08
2.51752e-05
5.6726056e-08
7.9765835e-08
2.510677e-05
5.6787917e-08
7.814919e-08
2.5039729e-05
5.7251623e-08
7.6780971e-08
2.4973573e-05
5.8330968e-08
7.6510233e-08
2.4906079e-05
5.9989479e-08
7.9732181e-08
6.071499e-08
1.1287824e-07
0.00010503672
9.0789371e-07
6.5005614e-06
9.9140653e-05
1.6524913e-06
6.6166802e-06
9.3788329e-05
2.0825241e-06
6.1717217e-06
8.8708526e-05
2.2549373e-06
5.91053e-06
8.3909682e-05
2.278404e-06
5.6151748e-06
7.9437109e-05
2.2074821e-06
5.2497564e-06
7.5296201e-05
2.0645348e-06
4.8553893e-06
7.1474034e-05
1.8722543e-06
4.460597e-06
6.7955013e-05
1.6547667e-06
4.077127e-06
6.4723621e-05
1.4313505e-06
3.7107669e-06
6.1764423e-05
1.2154298e-06
3.3655007e-06
5.9062056e-05
1.0158641e-06
3.0438911e-06
5.6601108e-05
8.3782743e-07
2.7471548e-06
5.4365944e-05
6.8344646e-07
2.475497e-06
5.2340648e-05
5.5258531e-07
2.2284384e-06
5.0509125e-05
4.4366552e-07
2.0050361e-06
4.8855299e-05
3.5433458e-07
1.8040352e-06
4.7363353e-05
2.8193593e-07
1.6239821e-06
4.6017963e-05
2.2381347e-07
1.4633127e-06
4.4804502e-05
1.7749383e-07
1.3204181e-06
4.3709199e-05
1.4078091e-07
1.1936935e-06
4.2719248e-05
1.1179157e-07
1.081575e-06
4.1822875e-05
8.8954536e-08
9.8256586e-07
4.1009364e-05
7.0987967e-08
8.9525474e-07
4.0269054e-05
5.6861817e-08
8.1832381e-07
3.9593306e-05
4.5719116e-08
7.5058473e-07
3.8974405e-05
3.6977866e-08
6.9093437e-07
3.8405585e-05
3.0067367e-08
6.3838633e-07
3.7880869e-05
2.4650824e-08
5.9204242e-07
3.7395029e-05
2.0439973e-08
5.5110605e-07
3.6943514e-05
1.7190263e-08
5.1487717e-07
3.6522366e-05
1.4716744e-08
4.8273957e-07
3.6128148e-05
1.2874785e-08
4.541539e-07
3.5757883e-05
1.1549904e-08
4.2864944e-07
3.5408991e-05
1.0650767e-08
4.0581704e-07
3.5079238e-05
1.010363e-08
3.8530225e-07
3.4766689e-05
9.848267e-09
3.6679877e-07
3.4469668e-05
9.8351342e-09
3.5004233e-07
3.4186716e-05
1.0022912e-08
3.3480553e-07
3.3916567e-05
1.0377004e-08
3.2089287e-07
3.3658116e-05
1.0868065e-08
3.081366e-07
3.3410395e-05
1.1470988e-08
2.9639286e-07
3.3172556e-05
1.2164237e-08
2.8553827e-07
3.2943852e-05
1.292929e-08
2.7546719e-07
3.2723625e-05
1.3750175e-08
2.6608892e-07
3.2511286e-05
1.4613105e-08
2.5732572e-07
3.2306316e-05
1.5506241e-08
2.4911066e-07
3.2108246e-05
1.6419609e-08
2.4138621e-07
3.1916658e-05
1.7344627e-08
2.3410268e-07
3.1731171e-05
1.8274326e-08
2.2721713e-07
3.1551444e-05
1.9203155e-08
2.2069211e-07
3.1377162e-05
2.0127735e-08
2.1449509e-07
3.1208038e-05
2.1048629e-08
2.0859678e-07
3.10438e-05
2.1972775e-08
2.0297052e-07
3.0884232e-05
2.2827861e-08
1.9760737e-07
3.0729103e-05
2.3662973e-08
1.9248226e-07
3.05782e-05
2.4489993e-08
1.8757379e-07
3.0431331e-05
2.5296285e-08
1.8286764e-07
3.0288318e-05
2.607798e-08
1.7835078e-07
3.0148994e-05
2.6834289e-08
1.7401106e-07
3.0013202e-05
2.7564697e-08
1.6983754e-07
2.9880797e-05
2.8268964e-08
1.6582026e-07
2.975164e-05
2.8947426e-08
1.6195013e-07
2.96256e-05
2.9600749e-08
1.5821897e-07
2.9502557e-05
3.0228541e-08
1.5461921e-07
2.9382396e-05
3.0823589e-08
1.5114467e-07
2.9265007e-05
3.1393145e-08
1.4778878e-07
2.9150287e-05
3.193958e-08
1.4454538e-07
2.9038137e-05
3.2461875e-08
1.41409e-07
2.8928465e-05
3.296007e-08
1.3837462e-07
2.8821181e-05
3.3434721e-08
1.3543749e-07
2.8716203e-05
3.3886377e-08
1.3259329e-07
2.8613449e-05
3.4315554e-08
1.2983788e-07
2.8512845e-05
3.4722875e-08
1.2716737e-07
2.8414317e-05
3.5108959e-08
1.2457818e-07
2.8317797e-05
3.5474462e-08
1.2206679e-07
2.8223219e-05
3.5819895e-08
1.1963006e-07
2.813052e-05
3.6145892e-08
1.1726489e-07
2.803964e-05
3.6453059e-08
1.1496838e-07
2.7950522e-05
3.6741867e-08
1.1273774e-07
2.7863111e-05
3.7012818e-08
1.1057026e-07
2.7777354e-05
3.7266265e-08
1.0846346e-07
2.7693204e-05
3.7502479e-08
1.0641476e-07
2.761061e-05
3.7721626e-08
1.0442174e-07
2.752953e-05
3.7923572e-08
1.0248203e-07
2.7449919e-05
3.8107974e-08
1.0059306e-07
2.7371738e-05
3.8274295e-08
9.8752289e-08
2.7294949e-05
3.8421537e-08
9.6956912e-08
2.7219516e-05
3.8548766e-08
9.5203624e-08
2.714541e-05
3.8655138e-08
9.348862e-08
2.7072603e-05
3.8741158e-08
9.1806944e-08
2.7001079e-05
3.8810246e-08
9.0152298e-08
2.6930832e-05
3.8872106e-08
8.8516567e-08
2.6861876e-05
3.8947392e-08
8.6890547e-08
2.679426e-05
3.9073532e-08
8.5269185e-08
2.6728065e-05
3.9306952e-08
8.3675957e-08
2.6663337e-05
3.9708346e-08
8.2271146e-08
2.659956e-05
4.0272014e-08
8.1836174e-08
2.6534295e-05
4.0698029e-08
8.455573e-08
3.9620872e-08
1.1507131e-07
0.00010494757
5.6811081e-07
6.5033076e-06
9.8925416e-05
1.0462983e-06
6.6283517e-06
9.3480449e-05
1.3439844e-06
6.1835066e-06
8.8341777e-05
1.4751324e-06
5.9184763e-06
8.3502084e-05
1.4993911e-06
5.6187065e-06
7.9004057e-05
1.4572411e-06
5.2482679e-06
7.4853978e-05
1.3667382e-06
4.8478757e-06
7.1037378e-05
1.2423973e-06
4.4464569e-06
6.7536063e-05
1.0997693e-06
4.0563128e-06
6.4331998e-05
9.5192359e-07
3.683491e-06
6.1407318e-05
8.0805759e-07
3.3320524e-06
5.8744339e-05
6.7422203e-07
3.0046209e-06
5.6325632e-05
5.5404399e-07
2.7024907e-06
5.4133973e-05
4.491675e-07
2.4259383e-06
5.2152298e-05
3.5972401e-07
2.174536e-06
5.0363747e-05
2.8484513e-07
1.9473718e-06
4.875178e-05
2.2310007e-07
1.7432015e-06
4.7300339e-05
1.7281168e-07
1.5605647e-06
4.5994012e-05
1.3226574e-07
1.3978748e-06
4.4818177e-05
9.9840053e-08
1.2534891e-06
4.3759121e-05
7.4075627e-08
1.1257614e-06
4.2804123e-05
5.370763e-08
1.0130814e-06
4.1941503e-05
3.7671235e-08
9.1390378e-07
4.1160627e-05
2.5096474e-08
8.2676732e-07
4.0451891e-05
1.5294183e-08
7.5030388e-07
3.980679e-05
7.5281572e-09
6.8329174e-07
3.9217543e-05
1.672754e-09
6.2455202e-07
3.8677513e-05
-3.0331404e-09
5.731308e-07
3.8180739e-05
-6.6486969e-09
5.2807356e-07
3.7722004e-05
-9.3595203e-09
4.8853449e-07
3.7296777e-05
-1.1371816e-08
4.5378927e-07
3.6901113e-05
-1.2818266e-08
4.2319909e-07
3.6531588e-05
-1.3805318e-08
3.9620477e-07
3.6185236e-05
-1.4417483e-08
3.7231874e-07
3.5859491e-05
-1.4721876e-08
3.5111776e-07
3.5552132e-05
-1.477262e-08
3.3223578e-07
3.5261237e-05
-1.4613918e-08
3.1535728e-07
3.4985143e-05
-1.4282182e-08
3.0021089e-07
3.472241e-05
-1.3807721e-08
2.8656374e-07
3.4471787e-05
-1.3215882e-08
2.742163e-07
3.4232185e-05
-1.2528196e-08
2.6299771e-07
3.4002657e-05
-1.1762807e-08
2.5276175e-07
3.3782373e-05
-1.0935249e-08
2.4338338e-07
3.3570606e-05
-1.0058755e-08
2.3475558e-07
3.3366714e-05
-9.1447699e-09
2.2678675e-07
3.3170131e-05
-8.2028337e-09
2.1939833e-07
3.2980356e-05
-7.2412212e-09
2.1252301e-07
3.279694e-05
-6.2668815e-09
2.0610283e-07
3.2619482e-05
-5.2855402e-09
2.0008784e-07
3.2447623e-05
-4.301832e-09
1.9443479e-07
3.228104e-05
-3.319054e-09
1.8910586e-07
3.2119438e-05
-2.3383219e-09
1.8406734e-07
3.1962554e-05
-1.3530528e-09
1.7928646e-07
3.1810075e-05
-2.7632824e-10
1.7472762e-07
3.1661878e-05
5.8583408e-10
1.7043904e-07
3.1517732e-05
1.4356001e-09
1.6637293e-07
3.1377429e-05
2.3038468e-09
1.6248958e-07
3.1240792e-05
3.1586548e-09
1.5877487e-07
3.1107656e-05
3.9969967e-09
1.5521718e-07
3.0977867e-05
4.817167e-09
1.5180544e-07
3.0851284e-05
5.6179552e-09
1.4852967e-07
3.0727773e-05
6.3990263e-09
1.4538078e-07
3.0607209e-05
7.1609068e-09
1.4235053e-07
3.0489473e-05
7.9059408e-09
1.394312e-07
3.037445e-05
8.635747e-09
1.3661576e-07
3.0262049e-05
9.3206651e-09
1.3390396e-07
3.0152163e-05
9.9938132e-09
1.3128567e-07
3.0044697e-05
1.0650372e-08
1.2875514e-07
2.9939564e-05
1.1286729e-08
1.2630828e-07
2.983668e-05
1.1903194e-08
1.2394088e-07
2.9735965e-05
1.2500163e-08
1.2164884e-07
2.9637345e-05
1.3077873e-08
1.1942843e-07
2.9540748e-05
1.3636717e-08
1.1727618e-07
2.9446105e-05
1.4177019e-08
1.1518884e-07
2.9353352e-05
1.4699156e-08
1.131634e-07
2.9262425e-05
1.520353e-08
1.1119704e-07
2.9173268e-05
1.5690489e-08
1.0928709e-07
2.9085822e-05
1.6160355e-08
1.0743107e-07
2.9000035e-05
1.6613557e-08
1.0562663e-07
2.8915855e-05
1.7050403e-08
1.0387153e-07
2.8833233e-05
1.747113e-08
1.0216361e-07
2.8752123e-05
1.787596e-08
1.0050082e-07
2.8672479e-05
1.8265086e-08
9.8881084e-08
2.8594259e-05
1.863855e-08
9.7302475e-08
2.8517424e-05
1.8996248e-08
9.5762938e-08
2.8441934e-05
1.933783e-08
9.4260359e-08
2.8367753e-05
1.9662832e-08
9.279235e-08
2.8294848e-05
1.9970485e-08
9.1356252e-08
2.8223187e-05
2.026005e-08
8.994885e-08
2.8152746e-05
2.0530731e-08
8.8565926e-08
2.8083503e-05
2.0782607e-08
8.7201759e-08
2.8015447e-05
2.1017566e-08
8.5848682e-08
2.7948582e-05
2.1240725e-08
8.449581e-08
2.7882937e-05
2.1462735e-08
8.3129515e-08
2.7818574e-05
2.1699985e-08
8.1736515e-08
2.7755588e-05
2.196931e-08
8.0324369e-08
2.7694014e-05
2.2266169e-08
7.9016083e-08
2.7633299e-05
2.2506276e-08
7.8480663e-08
2.7571004e-05
2.239343e-08
8.0599461e-08
2.0993103e-08
1.0779946e-07
0.00010489986
2.7443378e-07
6.5049155e-06
9.8802772e-05
5.0716633e-07
6.6362236e-06
9.329591e-05
6.5854976e-07
6.1922972e-06
8.8116302e-05
7.2902546e-07
5.9257148e-06
8.3248198e-05
7.4378814e-07