/*--------------------------------*- C++ -*----------------------------------*\
  =========                 |
  \\      /  F ield         | OpenFOAM: The Open Source CFD Toolbox
   \\    /   O peration     | Website:  https://openfoam.org
    \\  /    A nd           | Version:  7
     \\/     M anipulation  |
\*---------------------------------------------------------------------------*/
FoamFile
{
    version     2.0;
    format      ascii;
    class       surfaceScalarField;
    location    "3000/water";
    object      phi;
}
// * * * * * * * * * * * * * * * * * * * * * * * * * * * * * * * * * * * * * //

dimensions      [1 0 -1 0 0 0 0];

internalField   nonuniform List<scalar> 
156660
(
9.9057239e-05
6.0010402e-06
6.0528092e-06
8.6847497e-05
6.0555113e-06
6.1542307e-06
7.5687891e-05
5.5111363e-06
5.6484701e-06
6.5441704e-05
5.0404181e-06
5.2057689e-06
5.6267661e-05
4.4956436e-06
4.6783992e-06
4.8318019e-05
3.8797648e-06
4.0698777e-06
4.1624776e-05
3.2524449e-06
3.4407982e-06
3.6124897e-05
2.660462e-06
2.839417e-06
3.1692235e-05
2.1345127e-06
2.2981489e-06
2.8162841e-05
1.6926975e-06
1.8366964e-06
2.5361437e-05
1.3399933e-06
1.4614113e-06
2.3124664e-05
1.0698477e-06
1.1669256e-06
2.1315127e-05
8.687542e-07
9.4078226e-07
1.9825714e-05
7.2110064e-07
7.6831273e-07
1.8577278e-05
6.1248246e-07
6.3595306e-07
1.7513255e-05
5.3125218e-07
5.3277145e-07
1.6593744e-05
4.6879724e-07
4.5071346e-07
1.5790433e-05
4.1913717e-07
3.8417386e-07
1.5082784e-05
3.7829068e-07
3.2935848e-07
1.4455417e-05
3.4367129e-07
2.836956e-07
1.3896409e-05
3.1361407e-07
2.4539332e-07
1.339622e-05
2.870445e-07
2.1314452e-07
1.2947015e-05
2.6326031e-07
1.8594508e-07
1.2542237e-05
2.4179365e-07
1.6298462e-07
1.2176318e-05
2.2232208e-07
1.4359687e-07
1.1844484e-05
2.0461479e-07
1.2721882e-07
1.1542609e-05
1.8849495e-07
1.1337973e-07
1.1267116e-05
1.7381572e-07
1.0167792e-07
1.1014892e-05
1.6046268e-07
9.1760834e-08
1.0783252e-05
1.4833967e-07
8.3300606e-08
1.0569851e-05
1.3734905e-07
7.6052141e-08
1.0372614e-05
1.2738865e-07
6.9848302e-08
1.0189731e-05
1.1836808e-07
6.4514816e-08
1.001963e-05
1.1020447e-07
5.9896626e-08
9.8609388e-06
1.0281926e-07
5.5871657e-08
9.7124594e-06
9.6137973e-08
5.2341371e-08
9.5731439e-06
9.0091162e-08
4.9224353e-08
9.4420759e-06
8.4614476e-08
4.6453573e-08
9.3184531e-06
7.9648684e-08
4.3974116e-08
9.2015723e-06
7.5139711e-08
4.1741043e-08
9.0908166e-06
7.1038167e-08
3.9717535e-08
8.9856432e-06
6.7301121e-08
3.7872297e-08
8.8855707e-06
6.3894264e-08
3.6178133e-08
8.7901757e-06
6.0780098e-08
3.4614921e-08
8.6990829e-06
5.7926187e-08
3.3166654e-08
8.611959e-06
5.5303725e-08
3.1820117e-08
8.5285072e-06
5.2887443e-08
3.0564421e-08
8.4484618e-06
5.0655043e-08
2.9390279e-08
8.3715848e-06
4.8587036e-08
2.8290012e-08
8.2976614e-06
4.666615e-08
2.7257203e-08
8.2264975e-06
4.4877456e-08
2.6286408e-08
8.1579202e-06
4.3208787e-08
2.5368521e-08
8.0917731e-06
4.1649063e-08
2.4498016e-08
8.0279108e-06
4.0187006e-08
2.3675346e-08
7.9662006e-06
3.88127e-08
2.2897524e-08
7.9065219e-06
3.7518398e-08
2.2160249e-08
7.8487639e-06
3.6297862e-08
2.146015e-08
7.7928242e-06
3.514516e-08
2.0794593e-08
7.7386083e-06
3.405465e-08
2.0161161e-08
7.6860293e-06
3.3021328e-08
1.9557692e-08
7.6350062e-06
3.2040771e-08
1.8982246e-08
7.5854641e-06
3.1109079e-08
1.8433067e-08
7.537333e-06
3.0222614e-08
1.7908509e-08
7.4905478e-06
2.9378236e-08
1.7407023e-08
7.4450476e-06
2.8572996e-08
1.6927202e-08
7.4007756e-06
2.7804227e-08
1.6467814e-08
7.3576783e-06
2.7069602e-08
1.602766e-08
7.3157056e-06
2.6367076e-08
1.5605603e-08
7.2748103e-06
2.5694652e-08
1.5200682e-08
7.2349479e-06
2.5050565e-08
1.4811808e-08
7.1960767e-06
2.4433076e-08
1.443818e-08
7.158157e-06
2.3840691e-08
1.4078925e-08
7.1211518e-06
2.327191e-08
1.3733304e-08
7.0850258e-06
2.2725506e-08
1.3400518e-08
7.0497456e-06
2.2200216e-08
1.3079941e-08
7.0152798e-06
2.1694905e-08
1.2770915e-08
6.9815985e-06
2.1208572e-08
1.247277e-08
6.9486733e-06
2.0740233e-08
1.2184948e-08
6.9164775e-06
2.028896e-08
1.190684e-08
6.8849857e-06
1.9853932e-08
1.163786e-08
6.8541739e-06
1.9434378e-08
1.1377468e-08
6.8240194e-06
1.9029485e-08
1.1125097e-08
6.7945006e-06
1.8638499e-08
1.0880245e-08
6.7655975e-06
1.8260736e-08
1.0642285e-08
6.7372912e-06
1.7895561e-08
1.0410757e-08
6.709564e-06
1.7542096e-08
1.0185099e-08
6.6823995e-06
1.7199626e-08
9.9648739e-09
6.6557825e-06
1.6867267e-08
9.7498172e-09
6.6296983e-06
1.6544135e-08
9.5400012e-09
6.6041331e-06
1.6229277e-08
9.3359879e-09
6.5790714e-06
1.5921986e-08
9.139697e-09
6.554494e-06
1.5622319e-08
8.9550791e-09
6.5303708e-06
1.5332545e-08
8.7906663e-09
6.5066467e-06
1.5060455e-08
8.6635952e-09
6.4832094e-06
1.4827817e-08
8.6095224e-09
6.4598103e-06
1.4693054e-08
8.7060392e-09
6.4358387e-06
1.4826412e-08
9.1451388e-09
6.4096303e-06
1.574176e-08
1.0466741e-08
6.3782855e-06
1.8026567e-08
1.3318209e-08
3.2300228e-08
2.7923535e-08
0.00010646494
4.1872385e-06
6.4599816e-06
0.0001002019
5.695418e-06
6.6231353e-06
9.3659588e-05
5.7790388e-06
6.2744098e-06
8.7011589e-05
5.6514782e-06
6.0369387e-06
8.0422927e-05
5.3669119e-06
5.7173941e-06
7.4094022e-05
4.9022832e-06
5.3063862e-06
6.8167026e-05
4.3278135e-06
4.8516272e-06
6.2722565e-05
3.717891e-06
4.387032e-06
5.7799049e-05
3.1243144e-06
3.9337144e-06
5.3403345e-05
2.5820689e-06
3.5063329e-06
4.9517402e-05
2.1121062e-06
3.1138299e-06
4.6105482e-05
1.7220197e-06
2.7597473e-06
4.3121558e-05
1.4089355e-06
2.4437429e-06
4.0515558e-05
1.1637552e-06
2.163346e-06
3.8237948e-05
9.748585e-07
1.9152336e-06
3.6242683e-05
8.3055973e-07
1.6959573e-06
3.4488759e-05
7.2043696e-07
1.5022849e-06
3.2940716e-05
6.3586298e-07
1.3313172e-06
3.1568463e-05
5.7005006e-07
1.1804931e-06
3.0346733e-05
5.1784896e-07
1.0475521e-06
2.9254398e-05
4.7545955e-07
9.3049032e-07
2.8273782e-05
4.4013954e-07
8.2752024e-07
2.7390054e-05
4.0994892e-07
7.3704008e-07
2.6590699e-05
3.8353957e-07
6.5760859e-07
2.5865102e-05
3.5998887e-07
5.8793069e-07
2.5204197e-05
3.3867631e-07
5.268426e-07
2.4600205e-05
3.1918361e-07
4.733035e-07
2.4046429e-05
3.0120187e-07
4.2639016e-07
2.3537072e-05
2.8455205e-07
3.8526716e-07
2.3067119e-05
2.69111e-07
3.491824e-07
2.2632208e-05
2.5478166e-07
3.1747786e-07
2.2228528e-05
2.4147383e-07
2.8959532e-07
2.1852744e-05
2.2911076e-07
2.6504124e-07
2.1501947e-05
2.1762892e-07
2.4337256e-07
2.1173591e-05
2.0696952e-07
2.2420572e-07
2.0865444e-05
1.970757e-07
2.0720868e-07
2.0575549e-05
1.8789253e-07
1.9209396e-07
2.0302183e-05
1.7936723e-07
1.786134e-07
2.0043829e-05
1.7144908e-07
1.6655319e-07
1.979915e-05
1.6408983e-07
1.5572939e-07
1.956696e-05
1.5724381e-07
1.4598401e-07
1.934621e-05
1.5086898e-07
1.3718216e-07
1.9135969e-05
1.4492653e-07
1.2920882e-07
1.8935407e-05
1.3937907e-07
1.2196308e-07
1.8743783e-05
1.3419231e-07
1.1535763e-07
1.8560435e-05
1.2933509e-07
1.0931725e-07
1.8384766e-05
1.2477908e-07
1.0377713e-07
1.8216241e-05
1.2049854e-07
9.8681274e-08
1.8054377e-05
1.1647012e-07
9.3981324e-08
1.7898734e-05
1.1267293e-07
8.9635441e-08
1.7748917e-05
1.0908823e-07
8.5606995e-08
1.7604563e-05
1.0570004e-07
8.1862424e-08
1.7465345e-05
1.0249336e-07
7.8373266e-08
1.7330962e-05
9.945299e-08
7.511697e-08
1.7201138e-05
9.6564387e-08
7.2072749e-08
1.7075619e-05
9.381665e-08
6.9221148e-08
1.695417e-05
9.1201099e-08
6.6545123e-08
1.6836577e-05
8.8709085e-08
6.4029557e-08
1.6722638e-05
8.6331936e-08
6.1661073e-08
1.661217e-05
8.4061769e-08
5.9427719e-08
1.6505001e-05
8.1891558e-08
5.7318824e-08
1.640097e-05
7.9814931e-08
5.5324856e-08
1.6299929e-05
7.7826162e-08
5.3437127e-08
1.620174e-05
7.5919863e-08
5.1647936e-08
1.6106272e-05
7.4091053e-08
4.995011e-08
1.6013404e-05
7.2335009e-08
4.8337377e-08
1.5923022e-05
7.0647732e-08
4.6803842e-08
1.5835019e-05
6.9025742e-08
4.5344266e-08
1.5749294e-05
6.7465557e-08
4.3953703e-08
1.5665753e-05
6.5963777e-08
4.2627678e-08
1.5584307e-05
6.4517364e-08
4.1362173e-08
1.5504871e-05
6.312343e-08
4.0153341e-08
1.5427366e-05
6.1779306e-08
3.8997783e-08
1.5351716e-05
6.0482538e-08
3.7892293e-08
1.5277852e-05
5.9230821e-08
3.6833877e-08
1.5205705e-05
5.8021983e-08
3.5819734e-08
1.5135212e-05
5.6854016e-08
3.4847392e-08
1.5066313e-05
5.5725e-08
3.3914366e-08
1.499895e-05
5.4633129e-08
3.3018437e-08
1.493307e-05
5.3576728e-08
3.2157468e-08
1.4868621e-05
5.255421e-08
3.1329433e-08
1.4805554e-05
5.1563981e-08
3.0532427e-08
1.4743823e-05
5.0604496e-08
2.9764663e-08
1.4683386e-05
4.96743e-08
2.9024373e-08
1.4624199e-05
4.8771835e-08
2.8309882e-08
1.4566226e-05
4.7895485e-08
2.7619585e-08
1.4509431e-05
4.7043507e-08
2.6951979e-08
1.4453778e-05
4.6214153e-08
2.630579e-08
1.4399237e-05
4.5405452e-08
2.5679877e-08
1.4345777e-05
4.4615718e-08
2.5073767e-08
1.4293367e-05
4.3844251e-08
2.4487697e-08
1.4241972e-05
4.3092819e-08
2.3923724e-08
1.4191548e-05
4.2369895e-08
2.3387122e-08
1.4142019e-05
4.1699302e-08
2.2889633e-08
1.4093249e-05
4.1141614e-08
2.2456634e-08
1.4044951e-05
4.0844646e-08
2.214655e-08
1.3996485e-05
4.1169188e-08
2.2123062e-08
1.3946229e-05
4.3012309e-08
2.2985407e-08
1.389015e-05
4.8540265e-08
2.5565811e-08
6.3281555e-08
5.0000833e-08
0.00010603565
2.7876425e-06
6.4750379e-06
0.00010074799
4.4145412e-06
6.5685292e-06
9.5493515e-05
4.8594028e-06
6.1741158e-06
9.0256432e-05
4.930369e-06
5.9581921e-06
8.5101366e-05
4.8311767e-06
5.6908011e-06
8.0102875e-05
4.5561761e-06
5.3445981e-06
7.5322251e-05
4.1469521e-06
4.9614853e-06
7.0803266e-05
3.6678925e-06
4.5689837e-06
6.6576264e-05
3.1701903e-06
4.1811254e-06
6.2660725e-05
2.6900109e-06
3.8075976e-06
5.9065443e-05
2.2519318e-06
3.4554566e-06
5.5788936e-05
1.8697304e-06
3.1287957e-06
5.2820978e-05
1.5477473e-06
2.8291458e-06
5.014479e-05
1.2836302e-06
2.5563139e-06
4.7739304e-05
1.07123e-06
2.3091141e-06
4.5581183e-05
9.0281508e-07
2.0858661e-06
4.3646423e-05
7.7048779e-07
1.884709e-06
4.1911533e-05
6.6697374e-07
1.7037793e-06
4.0354306e-05
5.8598197e-07
1.541295e-06
3.8954268e-05
5.2230224e-07
1.3955849e-06
3.769288e-05
4.7175606e-07
1.265091e-06
3.6553576e-05
4.3107987e-07
1.1483634e-06
3.552169e-05
3.9778207e-07
1.0440533e-06
3.4584322e-05
3.6999885e-07
9.5090828e-07
3.3730181e-05
3.4635985e-07
8.6777019e-07
3.2949411e-05
3.2587762e-07
7.935687e-07
3.2233419e-05
3.0784047e-07
7.2733483e-07
3.1574711e-05
2.9172983e-07
6.6818105e-07
3.0966769e-05
2.7719266e-07
6.1530129e-07
3.0403928e-05
2.63981e-07
5.6797019e-07
2.9881258e-05
2.5190846e-07
5.2554315e-07
2.9394455e-05
2.4082713e-07
4.8745001e-07
2.8939761e-05
2.3062157e-07
4.5318326e-07
2.8513895e-05
2.2120152e-07
4.2229386e-07
2.8113985e-05
2.1249193e-07
3.9438675e-07
2.7737518e-05
2.0442796e-07
3.691149e-07
2.7382285e-05
1.9695192e-07
3.4617384e-07
2.7046344e-05
1.9001177e-07
3.2529678e-07
2.6727982e-05
1.8355995e-07
3.0625044e-07
2.6425689e-05
1.7755272e-07
2.8883085e-07
2.6138123e-05
1.7195005e-07
2.7285984e-07
2.5864094e-05
1.6671516e-07
2.5818183e-07
2.5602546e-05
1.6181452e-07
2.446609e-07
2.535253e-05
1.5721709e-07
2.3217763e-07
2.5113201e-05
1.5289448e-07
2.2062725e-07
2.4883797e-05
1.4882099e-07
2.0991773e-07
2.4663634e-05
1.4497367e-07
1.999681e-07
2.4452094e-05
1.413318e-07
1.9070706e-07
2.4248615e-05
1.3787698e-07
1.8207153e-07
2.405269e-05
1.3459269e-07
1.7400572e-07
2.3863854e-05
1.3146462e-07
1.6645988e-07
2.3681684e-05
1.2848058e-07
1.5938927e-07
2.3505794e-05
1.2562917e-07
1.5275417e-07
2.3335829e-05
1.2289869e-07
1.4651968e-07
2.3171462e-05
1.2027635e-07
1.4065463e-07
2.3012394e-05
1.1775472e-07
1.351302e-07
2.2858345e-05
1.1532968e-07
1.2992043e-07
2.2709057e-05
1.1299536e-07
1.2500172e-07
2.2564291e-05
1.1074515e-07
1.203529e-07
2.2423824e-05
1.0857347e-07
1.159546e-07
2.2287451e-05
1.064755e-07
1.1178925e-07
2.2154978e-05
1.04447e-07
1.0784082e-07
2.2026226e-05
1.0248421e-07
1.0409459e-07
2.1901025e-05
1.0058351e-07
1.0053716e-07
2.1779218e-05
9.8741556e-08
9.7156169e-08
2.1660658e-05
9.6954905e-08
9.3940296e-08
2.1545205e-05
9.522125e-08
9.0879031e-08
2.1432729e-05
9.3538814e-08
8.7962792e-08
2.1323107e-05
9.1905328e-08
8.5182596e-08
2.1216222e-05
9.0318521e-08
8.2530188e-08
2.1111965e-05
8.8776401e-08
7.9997872e-08
2.1010233e-05
8.727714e-08
7.7578619e-08
2.0910927e-05
8.5818989e-08
7.5265844e-08
2.0813956e-05
8.4400333e-08
7.3053448e-08
2.0719232e-05
8.3019685e-08
7.0935652e-08
2.0626671e-05
8.1675641e-08
6.89072e-08
2.0536195e-05
8.036683e-08
6.6963139e-08
2.0447729e-05
7.9091973e-08
6.5098755e-08
2.0361203e-05
7.7849848e-08
6.3309769e-08
2.0276548e-05
7.6639259e-08
6.1592041e-08
2.0193702e-05
7.5458998e-08
5.9941749e-08
2.0112602e-05
7.4307975e-08
5.8355197e-08
2.0033193e-05
7.3184916e-08
5.6829034e-08
1.9955419e-05
7.2088624e-08
5.5359972e-08
1.9879228e-05
7.1017624e-08
5.3944854e-08
1.9804572e-05
6.9970411e-08
5.2580715e-08
1.9731406e-05
6.8945271e-08
5.1264776e-08
1.9659685e-05
6.7940155e-08
4.9994353e-08
1.9589371e-05
6.6953035e-08
4.8767019e-08
1.9520423e-05
6.5982358e-08
4.7580509e-08
1.9452807e-05
6.5028047e-08
4.643308e-08
1.9386482e-05
6.409413e-08
4.5323725e-08
1.9321404e-05
6.3194722e-08
4.4253063e-08
1.9257511e-05
6.2366344e-08
4.3225223e-08
1.9194705e-05
6.169517e-08
4.2253134e-08
1.9132798e-05
6.1374078e-08
4.1377406e-08
1.9071394e-05
6.1822406e-08
4.0750661e-08
1.9009424e-05
6.392471e-08
4.1057618e-08
1.8944661e-05
6.9304674e-08
4.3998868e-08
7.9170943e-08
7.4661532e-08
0.0001054937
1.9169871e-06
6.4880407e-06
0.00010005365
3.2729596e-06
6.5816334e-06
9.4926077e-05
3.8288995e-06
6.1580776e-06
8.9946373e-05
3.9838109e-06
5.9262629e-06
8.5163276e-05
3.9595077e-06
5.6547657e-06
8.0619137e-05
3.7899368e-06
5.3103784e-06
7.6329462e-05
3.5015547e-06
4.9350725e-06
7.230016e-05
3.1412013e-06
4.5559928e-06
6.8534206e-05
2.7514802e-06
4.1846641e-06
6.5032983e-05
2.3633492e-06
3.8278852e-06
6.1795789e-05
1.9984143e-06
3.490711e-06
5.8818843e-05
1.670376e-06
3.176301e-06
5.6094718e-05
1.3858295e-06
2.886043e-06
5.3612488e-05
1.1457945e-06
2.6200649e-06
5.1358373e-05
9.4764119e-07
2.3777043e-06
4.9316593e-05
7.8676785e-07
2.1578271e-06
4.7470246e-05
6.5779546e-07
1.9590391e-06
4.5802069e-05
5.5532541e-07
1.7798252e-06
4.4295042e-05
4.7437116e-07
1.6186378e-06
4.293283e-05
4.1056669e-07
1.473948e-06
4.1700078e-05
3.6023236e-07
1.3442759e-06
4.0582591e-05
3.2035744e-07
1.2282094e-06
3.956742e-05
2.8853737e-07
1.1244154e-06
3.8642881e-05
2.6289066e-07
1.0316467e-06
3.7798527e-05
2.4196986e-07
9.48744e-07
3.7025076e-05
2.2467703e-07
8.7465169e-07
3.6314324e-05
2.1018899e-07
8.0840407e-07
3.5659057e-05
1.9788605e-07
7.4911043e-07
3.5052961e-05
1.8731584e-07
6.959728e-07
3.4490519e-05
1.7814872e-07
6.482738e-07
3.3966922e-05
1.7013168e-07
6.053744e-07
3.3477973e-05
1.6306727e-07
5.6670865e-07
3.3020016e-05
1.5680293e-07
5.3177539e-07
3.2589865e-05
1.5122053e-07
5.0013239e-07
3.218474e-05
1.4622562e-07
4.7139137e-07
3.1802215e-05
1.4174075e-07
4.4521234e-07
3.1440168e-05
1.3770095e-07
4.2129808e-07
3.1096739e-05
1.3405095e-07
3.9938924e-07
3.0770297e-05
1.3074295e-07
3.7925956e-07
3.0459402e-05
1.2773518e-07
3.6071194e-07
3.0162787e-05
1.2499092e-07
3.4357479e-07
2.9879325e-05
1.2247786e-07
3.2769849e-07
2.960802e-05
1.2016734e-07
3.1295272e-07
2.934798e-05
1.1803382e-07
2.9922352e-07
2.9098408e-05
1.1605462e-07
2.8641135e-07
2.885859e-05
1.1420983e-07
2.7442904e-07
2.8627882e-05
1.1248193e-07
2.6319998e-07
2.8405701e-05
1.1085561e-07
2.5265686e-07
2.819152e-05
1.093176e-07
2.4274022e-07
2.7984859e-05
1.0785649e-07
2.3339756e-07
2.7785279e-05
1.0646278e-07
2.245821e-07
2.7592379e-05
1.0512871e-07
2.1625215e-07
2.740579e-05
1.038474e-07
2.0837037e-07
2.7225174e-05
1.0261116e-07
2.0090359e-07
2.705022e-05
1.0140746e-07
1.9382257e-07
2.6880641e-05
1.0023384e-07
1.8710041e-07
2.6716166e-05
9.9092352e-08
1.8071225e-07
2.6556546e-05
9.7979992e-08
1.7463559e-07
2.6401548e-05
9.6892542e-08
1.6885017e-07
2.6250957e-05
9.5827086e-08
1.6333741e-07
2.610457e-05
9.4781696e-08
1.5808045e-07
2.5962199e-05
9.3754736e-08
1.5306363e-07
2.5823666e-05
9.2744863e-08
1.4827263e-07
2.5688804e-05
9.1750995e-08
1.4369413e-07
2.5557458e-05
9.0771738e-08
1.3931598e-07
2.5429481e-05
8.980518e-08
1.3512695e-07
2.5304734e-05
8.885146e-08
1.3111645e-07
2.5183087e-05
8.7911222e-08
1.2727466e-07
2.5064416e-05
8.6983951e-08
1.235924e-07
2.4948604e-05
8.6068916e-08
1.2006118e-07
2.4835542e-05
8.5165792e-08
1.1667302e-07
2.4725124e-05
8.4274339e-08
1.1342045e-07
2.4617252e-05
8.3394315e-08
1.1029656e-07
2.4511832e-05
8.2525509e-08
1.072948e-07
2.4408775e-05
8.1667772e-08
1.0440899e-07
2.4307997e-05
8.0821004e-08
1.0163344e-07
2.4209416e-05
7.9985035e-08
9.8962687e-08
2.4112956e-05
7.9159771e-08
9.6391545e-08
2.4018546e-05
7.8345046e-08
9.39153e-08
2.3926115e-05
7.7540725e-08
9.1529325e-08
2.3835598e-05
7.6746565e-08
8.9229251e-08
2.3746933e-05
7.5962337e-08
8.7011031e-08
2.366006e-05
7.5187643e-08
8.4870691e-08
2.3574922e-05
7.4421974e-08
8.2804542e-08
2.3491466e-05
7.366464e-08
8.0808908e-08
2.3409641e-05
7.2914638e-08
7.8880371e-08
2.33294e-05
7.2170717e-08
7.7015493e-08
2.3250698e-05
7.1431336e-08
7.5211005e-08
2.3173493e-05
7.069488e-08
7.3463656e-08
2.3097745e-05
6.9960217e-08
7.1770063e-08
2.3023418e-05
6.9227977e-08
7.0127037e-08
2.2950477e-05
6.8503521e-08
6.8531201e-08
2.2878889e-05
6.7802894e-08
6.6979724e-08
2.2808619e-05
6.7165089e-08
6.5471569e-08
2.2739625e-05
6.6675244e-08
6.4013341e-08
2.267185e-05
6.6507062e-08
6.2642303e-08
2.2605149e-05
6.6990702e-08
6.1532353e-08
2.2538888e-05
6.8686004e-08
6.1499914e-08
2.2471121e-05
7.2226953e-08
6.4845116e-08
7.6722845e-08
9.8461332e-08
0.0001051979
1.3340884e-06
6.4961221e-06
9.9496561e-05
2.3731022e-06
6.6011947e-06
9.4262459e-05
2.9019224e-06
6.1610799e-06
8.9251186e-05
3.0856642e-06
5.9094196e-06
8.4493497e-05
3.0947347e-06
5.6224614e-06
8.0033635e-05
2.9846656e-06
5.2651341e-06
7.5876907e-05
2.7790155e-06
4.8792667e-06
7.2014635e-05
2.5106844e-06
4.4927895e-06
6.8436293e-05
2.2128729e-06
4.1169489e-06
6.5131387e-05
1.9107259e-06
3.7575291e-06
6.208941e-05
1.6217321e-06
3.4186596e-06
5.9299432e-05
1.3573878e-06
3.1029661e-06
5.6749589e-05
1.1240344e-06
2.8116387e-06
5.4426788e-05
9.2377951e-07
2.5448158e-06
5.2316754e-05
7.5572797e-07
2.3019466e-06
5.0404313e-05
6.1717855e-07
2.0820302e-06
4.8673788e-05
5.045435e-07
1.8837772e-06
4.7109414e-05
4.1397181e-07
1.7057274e-06
4.5695713e-05
3.417365e-07
1.5463363e-06
4.4417792e-05
2.8445145e-07
1.4040359e-06
4.3261575e-05
2.3917114e-07
1.277278e-06
4.2213952e-05
2.0341502e-07
1.1645651e-06
4.1262871e-05
1.7514739e-07
1.0644719e-06
4.039737e-05
1.527323e-07
9.7565897e-07
3.9607583e-05
1.3487527e-07
8.9688145e-07
3.8884688e-05
1.2055568e-07
8.2701638e-07
3.8220848e-05
1.0901091e-07
7.6501855e-07
3.7609155e-05
9.9633835e-08
7.0994487e-07
3.7043542e-05
9.1977454e-08
6.6095087e-07
3.6518702e-05
8.5705843e-08
6.1728288e-07
3.6030009e-05
8.0552395e-08
5.7827308e-07
3.5573433e-05
7.6308275e-08
5.433341e-07
3.5145475e-05
7.2811266e-08
5.1195027e-07
3.4743091e-05
6.9934101e-08
4.8367023e-07
3.4363641e-05
6.7575426e-08
4.5810066e-07
3.4004828e-05
6.5652881e-08
4.3489995e-07
3.3664659e-05
6.4098588e-08
4.1377208e-07
3.3341393e-05
6.2855896e-08
3.9446092e-07
3.3033513e-05
6.1877017e-08
3.7674525e-07
3.2739693e-05
6.1121094e-08
3.6043425e-07
3.2458768e-05
6.0553052e-08
3.4536327e-07
3.2189712e-05
6.0142655e-08
3.3139054e-07
3.1931622e-05
5.9863662e-08
3.1839374e-07
3.1683696e-05
5.9693129e-08
3.0626732e-07
3.1445219e-05
5.961122e-08
2.949201e-07
3.1215555e-05
5.960063e-08
2.8427316e-07
3.0994132e-05
5.9646553e-08
2.7425806e-07
3.0780436e-05
5.9736195e-08
2.648154e-07
3.0574002e-05
5.9858666e-08
2.5589334e-07
3.0374407e-05
6.0004935e-08
2.4744662e-07
3.0181267e-05
6.0167657e-08
2.3943546e-07
2.9994229e-05
6.0341246e-08
2.3182486e-07
2.9812971e-05
6.0521816e-08
2.2458373e-07
2.9637193e-05
6.0704443e-08
2.1768454e-07
2.9466629e-05
6.0867291e-08
2.1110456e-07
2.9301024e-05
6.1016991e-08
2.0482181e-07
2.914014e-05
6.1160883e-08
1.9881571e-07
2.8983756e-05
6.1294937e-08
1.9306839e-07
2.8831669e-05
6.1415476e-08
1.875639e-07
2.8683688e-05
6.1520972e-08
1.8228767e-07
2.8539633e-05
6.1610571e-08
1.7722637e-07
2.8399336e-05
6.1683774e-08
1.7236783e-07
2.8262639e-05
6.1740469e-08
1.677009e-07
2.8129394e-05
6.1780655e-08
1.6321521e-07
2.7999461e-05
6.1803876e-08
1.5890124e-07
2.7872709e-05
6.1807393e-08
1.5475035e-07
2.7749012e-05
6.1793589e-08
1.5075443e-07
2.7628253e-05
6.1764821e-08
1.4690555e-07
2.7510319e-05
6.1720996e-08
1.4319661e-07
2.7395105e-05
6.1662117e-08
1.3962082e-07
2.728251e-05
6.1588627e-08
1.3617203e-07
2.7172439e-05
6.1501072e-08
1.3284424e-07
2.7064802e-05
6.1399976e-08
1.2963191e-07
2.6959511e-05
6.1285914e-08
1.2652993e-07
2.6856486e-05
6.1159543e-08
1.2353327e-07
2.6755649e-05
6.1021318e-08
1.2063731e-07
2.6656924e-05
6.0871895e-08
1.1783768e-07
2.6560242e-05
6.0711737e-08
1.1513015e-07
2.6465535e-05
6.0541415e-08
1.1251078e-07
2.6372738e-05
6.0361389e-08
1.0997579e-07
2.6281791e-05
6.0171961e-08
1.0752159e-07
2.6192636e-05
5.9973562e-08
1.051447e-07
2.6105215e-05
5.9766324e-08
1.0284181e-07
2.6019477e-05
5.9550265e-08
1.0060976e-07
2.5935371e-05
5.9325149e-08
9.8445282e-08
2.585285e-05
5.9090508e-08
9.634538e-08
2.5771868e-05
5.8845494e-08
9.4306919e-08
2.5692384e-05
5.858903e-08
9.2326767e-08
2.5614357e-05
5.8319817e-08
9.0401436e-08
2.5537753e-05
5.8037079e-08
8.8527331e-08
2.5462539e-05
5.774163e-08
8.6700207e-08
2.5388689e-05
5.7438401e-08
8.4915179e-08
2.5316184e-05
5.7141425e-08
8.316663e-08
2.5245017e-05
5.6882569e-08
8.1449644e-08
2.51752e-05
5.6726016e-08
7.9765823e-08
2.510677e-05
5.6787879e-08
7.8149166e-08
2.5039729e-05
5.7251596e-08
7.678096e-08
2.4973573e-05
5.8330918e-08
7.6510221e-08
2.4906079e-05
5.9989462e-08
7.9732169e-08
6.0714993e-08
1.1287822e-07
0.00010503672
9.0789368e-07
6.5005614e-06
9.9140653e-05
1.6524913e-06
6.6166802e-06
9.3788329e-05
2.0825241e-06
6.1717217e-06
8.8708526e-05
2.2549373e-06
5.91053e-06
8.3909682e-05
2.278404e-06
5.6151748e-06
7.9437109e-05
2.2074821e-06
5.2497564e-06
7.5296201e-05
2.0645348e-06
4.8553893e-06
7.1474034e-05
1.8722543e-06
4.460597e-06
6.7955013e-05
1.6547667e-06
4.0771269e-06
6.4723621e-05
1.4313505e-06
3.7107669e-06
6.1764423e-05
1.2154298e-06
3.3655007e-06
5.9062056e-05
1.0158641e-06
3.0438911e-06
5.6601108e-05
8.3782745e-07
2.7471548e-06
5.4365944e-05
6.8344648e-07
2.475497e-06
5.2340648e-05
5.5258529e-07
2.2284383e-06
5.0509125e-05
4.436655e-07
2.0050361e-06
4.8855299e-05
3.5433457e-07
1.8040352e-06
4.7363353e-05
2.8193592e-07
1.6239821e-06
4.6017963e-05
2.2381347e-07
1.4633127e-06
4.4804503e-05
1.7749381e-07
1.3204181e-06
4.3709199e-05
1.4078086e-07
1.1936934e-06
4.2719248e-05
1.1179156e-07
1.081575e-06
4.1822875e-05
8.895454e-08
9.8256584e-07
4.1009364e-05
7.098798e-08
8.9525472e-07
4.0269054e-05
5.6861815e-08
8.1832381e-07
3.9593306e-05
4.5719115e-08
7.5058476e-07
3.8974405e-05
3.6977838e-08
6.9093439e-07
3.8405585e-05
3.0067352e-08
6.3838632e-07
3.7880869e-05
2.4650815e-08
5.9204241e-07
3.7395029e-05
2.0439962e-08
5.5110607e-07
3.6943514e-05
1.7190274e-08
5.1487716e-07
3.6522366e-05
1.4716718e-08
4.8273958e-07
3.6128148e-05
1.2874758e-08
4.5415389e-07
3.5757883e-05
1.1549915e-08
4.2864943e-07
3.5408991e-05
1.0650801e-08
4.0581704e-07
3.5079238e-05
1.0103623e-08
3.8530228e-07
3.4766689e-05
9.8482556e-09
3.6679876e-07
3.4469668e-05
9.8351017e-09
3.5004233e-07
3.4186716e-05
1.0022917e-08
3.3480553e-07
3.3916567e-05
1.0377032e-08
3.2089285e-07
3.3658116e-05
1.0868093e-08
3.0813659e-07
3.3410395e-05
1.1471001e-08
2.9639283e-07
3.3172556e-05
1.2164223e-08
2.8553824e-07
3.2943852e-05
1.2929272e-08
2.7546717e-07
3.2723625e-05
1.3750187e-08
2.6608892e-07
3.2511286e-05
1.4613089e-08
2.5732571e-07
3.2306316e-05
1.5506259e-08
2.4911064e-07
3.2108246e-05
1.6419604e-08
2.4138617e-07
3.1916658e-05
1.7344647e-08
2.341027e-07
3.1731171e-05
1.8274353e-08
2.2721713e-07
3.1551444e-05
1.9203177e-08
2.2069215e-07
3.1377162e-05
2.0127755e-08
2.1449508e-07
3.1208038e-05
2.1048658e-08
2.0859682e-07
3.10438e-05
2.1972768e-08
2.0297053e-07
3.0884232e-05
2.2827828e-08
1.9760736e-07
3.0729103e-05
2.3662954e-08
1.9248229e-07
3.05782e-05
2.449002e-08
1.8757381e-07
3.0431331e-05
2.529628e-08
1.8286761e-07
3.0288318e-05
2.6077976e-08
1.7835076e-07
3.0148994e-05
2.6834314e-08
1.7401107e-07
3.0013202e-05
2.7564691e-08
1.6983754e-07
2.9880797e-05
2.8268946e-08
1.6582023e-07
2.975164e-05
2.8947394e-08
1.619501e-07
2.9625601e-05
2.9600766e-08
1.5821897e-07
2.9502557e-05
3.0228559e-08
1.5461924e-07
2.9382396e-05
3.0823604e-08
1.5114466e-07
2.9265007e-05
3.1393119e-08
1.4778878e-07
2.9150287e-05
3.1939607e-08
1.4454537e-07
2.9038137e-05
3.2461876e-08
1.4140902e-07
2.8928465e-05
3.2960094e-08
1.3837461e-07
2.8821181e-05
3.3434733e-08
1.3543749e-07
2.8716203e-05
3.3886361e-08
1.3259332e-07
2.8613449e-05
3.431554e-08
1.2983786e-07
2.8512845e-05
3.4722874e-08
1.2716738e-07
2.8414317e-05
3.5108989e-08
1.2457815e-07
2.8317797e-05
3.5474458e-08
1.2206679e-07
2.8223219e-05
3.5819928e-08
1.196301e-07
2.813052e-05
3.6145924e-08
1.1726491e-07
2.803964e-05
3.6453079e-08
1.1496839e-07
2.7950522e-05
3.6741896e-08
1.1273774e-07
2.7863111e-05
3.7012862e-08
1.1057026e-07
2.7777354e-05
3.7266245e-08
1.0846343e-07
2.7693204e-05
3.7502492e-08
1.0641476e-07
2.761061e-05
3.7721624e-08
1.0442177e-07
2.752953e-05
3.7923596e-08
1.0248202e-07
2.744992e-05
3.8108015e-08
1.0059308e-07
2.7371738e-05
3.8274301e-08
9.8752301e-08
2.7294949e-05
3.8421538e-08
9.6956889e-08
2.7219516e-05
3.8548729e-08
9.520363e-08
2.714541e-05
3.8655083e-08
9.3488623e-08
2.7072603e-05
3.8741093e-08
9.180695e-08
2.7001079e-05
3.8810251e-08
9.0152325e-08
2.6930832e-05
3.8872105e-08
8.8516545e-08
2.6861876e-05
3.8947387e-08
8.6890516e-08
2.679426e-05
3.9073536e-08
8.5269187e-08
2.6728065e-05
3.9306923e-08
8.3675926e-08
2.6663337e-05
3.9708286e-08
8.2271172e-08
2.659956e-05
4.0271972e-08
8.1836174e-08
2.6534295e-05
4.0698003e-08
8.4555724e-08
3.962084e-08
1.1507133e-07
0.00010494757
5.6811078e-07
6.5033076e-06
9.8925416e-05
1.0462983e-06
6.6283516e-06
9.3480449e-05
1.3439845e-06
6.1835065e-06
8.8341777e-05
1.4751324e-06
5.9184762e-06
8.3502084e-05
1.4993911e-06
5.6187065e-06
7.9004057e-05
1.4572411e-06
5.2482679e-06
7.4853978e-05
1.3667382e-06
4.8478757e-06
7.1037378e-05
1.2423973e-06
4.4464569e-06
6.7536063e-05
1.0997693e-06
4.0563127e-06
6.4331998e-05
9.5192363e-07
3.683491e-06
6.1407318e-05
8.0805756e-07
3.3320524e-06
5.8744339e-05
6.7422205e-07
3.0046209e-06
5.6325632e-05
5.54044e-07
2.7024907e-06
5.4133973e-05
4.4916748e-07
2.4259383e-06
5.2152298e-05
3.5972398e-07
2.174536e-06
5.0363747e-05
2.8484513e-07
1.9473717e-06
4.875178e-05
2.2310006e-07
1.7432015e-06
4.7300339e-05
1.7281166e-07
1.5605647e-06
4.5994012e-05
1.3226571e-07
1.3978747e-06
4.4818177e-05
9.9840025e-08
1.2534891e-06
4.3759121e-05
7.4075614e-08
1.1257614e-06
4.2804123e-05
5.370765e-08
1.0130814e-06
4.1941503e-05
3.7671223e-08
9.1390375e-07
4.1160627e-05
2.5096471e-08
8.2676732e-07
4.0451891e-05
1.5294166e-08
7.5030388e-07
3.980679e-05
7.5281659e-09
6.8329172e-07
3.9217543e-05
1.6727545e-09
6.2455204e-07
3.8677513e-05
-3.0331213e-09
5.7313083e-07
3.8180739e-05
-6.6487052e-09
5.2807354e-07
3.7722004e-05
-9.3595334e-09
4.885345e-07
3.7296777e-05
-1.137182e-08
4.5378927e-07
3.6901112e-05
-1.2818254e-08
4.231991e-07
3.6531588e-05
-1.3805314e-08
3.9620476e-07
3.6185236e-05
-1.441748e-08
3.7231874e-07
3.5859491e-05
-1.4721899e-08
3.5111775e-07
3.5552132e-05
-1.4772655e-08
3.3223578e-07
3.5261237e-05
-1.4613924e-08
3.1535728e-07
3.4985143e-05
-1.4282194e-08
3.0021088e-07
3.472241e-05
-1.3807706e-08
2.8656375e-07
3.4471787e-05
-1.3215886e-08
2.7421631e-07
3.4232185e-05
-1.252819e-08
2.629977e-07
3.4002657e-05
-1.1762782e-08
2.5276171e-07
3.3782373e-05
-1.0935233e-08
2.4338335e-07
3.3570606e-05
-1.0058783e-08
2.3475555e-07
3.3366714e-05
-9.144738e-09
2.2678671e-07
3.3170132e-05
-8.2028121e-09
2.1939833e-07
3.2980356e-05
-7.241229e-09
2.1252297e-07
3.279694e-05
-6.2668761e-09
2.0610281e-07
3.2619482e-05
-5.285519e-09
2.0008785e-07
3.2447623e-05
-4.3018141e-09
1.9443477e-07
3.228104e-05
-3.3190303e-09
1.8910586e-07
3.2119438e-05
-2.338307e-09
1.8406733e-07
3.1962554e-05
-1.3530428e-09
1.7928646e-07
3.1810075e-05
-2.7632284e-10
1.7472763e-07
3.1661878e-05
5.8585828e-10
1.7043904e-07
3.1517732e-05
1.4356088e-09
1.6637295e-07
3.1377429e-05
2.303826e-09
1.6248959e-07
3.1240792e-05
3.1586412e-09
1.5877485e-07
3.1107656e-05
3.9969822e-09
1.5521719e-07
3.0977867e-05
4.817176e-09
1.5180547e-07
3.0851284e-05
5.6179545e-09
1.4852969e-07
3.0727774e-05
6.3990222e-09
1.4538079e-07
3.0607209e-05
7.1608984e-09
1.4235055e-07
3.0489473e-05
7.9059052e-09
1.3943122e-07
3.037445e-05
8.6357332e-09
1.3661579e-07
3.0262049e-05
9.3206438e-09
1.3390394e-07
3.0152163e-05
9.993799e-09
1.3128565e-07
3.0044697e-05
1.0650389e-08
1.287551e-07
2.9939564e-05
1.1286756e-08
1.2630827e-07
2.983668e-05
1.1903191e-08
1.2394087e-07
2.9735965e-05
1.2500157e-08
1.2164883e-07
2.9637345e-05
1.3077888e-08
1.1942845e-07
2.9540748e-05
1.3636736e-08
1.1727619e-07
2.9446105e-05
1.4177029e-08
1.1518882e-07
2.9353352e-05
1.4699175e-08
1.1316338e-07
2.9262425e-05
1.5203542e-08
1.1119699e-07
2.9173268e-05
1.5690505e-08
1.0928707e-07
2.9085822e-05
1.6160381e-08
1.0743109e-07
2.9000035e-05
1.6613582e-08
1.0562664e-07
2.8915855e-05
1.7050403e-08
1.0387153e-07
2.8833233e-05
1.7471114e-08
1.0216361e-07
2.8752123e-05
1.7875981e-08
1.0050081e-07
2.8672479e-05
1.8265128e-08
9.8881093e-08
2.8594259e-05
1.8638577e-08
9.7302489e-08
2.8517424e-05
1.8996285e-08
9.5762917e-08
2.8441934e-05
1.9337837e-08
9.4260317e-08
2.8367753e-05
1.9662842e-08
9.2792309e-08
2.8294848e-05
1.9970509e-08
9.1356282e-08
2.8223187e-05
2.0260016e-08
8.9948855e-08
2.8152746e-05
2.0530696e-08
8.8565933e-08
2.8083503e-05
2.0782611e-08
8.7201815e-08
2.8015447e-05
2.1017517e-08
8.5848737e-08
2.7948582e-05
2.1240683e-08
8.4495864e-08
2.7882937e-05
2.1462699e-08
8.3129515e-08
2.7818574e-05
2.1699983e-08
8.1736543e-08
2.7755588e-05
2.1969288e-08
8.0324348e-08
2.7694014e-05
2.2266144e-08
7.9016061e-08
2.7633299e-05
2.2506241e-08
7.8480625e-08
2.7571004e-05
2.2393414e-08
8.0599491e-08
2.0993089e-08
1.0779945e-07
0.00010489986
2.744338e-07
6.5049155e-06
9.8802772e-05
5.0716634e-07
6.6362236e-06
9.329591e-05
6.5854975e-07
6.1922972e-06
8.8116302e-05
7.2902545e-07
5.9257148e-06
8.3248198e-05