/*--------------------------------*- C++ -*----------------------------------*\
  =========                 |
  \\      /  F ield         | OpenFOAM: The Open Source CFD Toolbox
   \\    /   O peration     | Website:  https://openfoam.org
    \\  /    A nd           | Version:  7
     \\/     M anipulation  |
\*---------------------------------------------------------------------------*/
FoamFile
{
    version     2.0;
    format      ascii;
    class       volVectorField;
    location    "3000/water";
    object      U;
}
// * * * * * * * * * * * * * * * * * * * * * * * * * * * * * * * * * * * * * //

dimensions      [0 1 -1 0 0 0 0];

internalField   nonuniform List<vector> 
54000
(
(0.0090020934 0.00020305973 0.00020444027)
(0.0083186447 0.00023622738 0.00023904411)
(0.0073695241 0.00021363852 0.00021763527)
(0.0063566114 0.00018488016 0.00018965819)
(0.0054486673 0.00015530836 0.00016048633)
(0.0046741594 0.00012529952 0.00013052937)
(0.0040193038 9.7052612e-05 0.00010203017)
(0.0034740067 7.2578999e-05 7.7073287e-05)
(0.0030302461 5.2876127e-05 5.6738329e-05)
(0.0026757323 3.806815e-05 4.1216512e-05)
(0.0023947254 2.7637704e-05 3.003714e-05)
(0.0021713898 2.0689034e-05 2.2336508e-05)
(0.0019919695 1.6236161e-05 1.7152703e-05)
(0.0018455015 1.3416236e-05 1.3643172e-05)
(0.0017237326 1.1582489e-05 1.1179122e-05)
(0.0016206928 1.0304891e-05 9.34558e-06)
(0.0015321593 9.3257907e-06 7.895715e-06)
(0.0014551546 8.5052959e-06 6.6953101e-06)
(0.0013875459 7.774633e-06 5.6760574e-06)
(0.0013277612 7.1034286e-06 4.8034851e-06)
(0.001274601 6.4798495e-06 4.0581559e-06)
(0.0012271179 5.899946e-06 3.4261575e-06)
(0.0011845424 5.3625301e-06 2.8950706e-06)
(0.001146235 4.867021e-06 2.4526298e-06)
(0.0011116558 4.4125997e-06 2.0869755e-06)
(0.0010803434 3.9980127e-06 1.7867456e-06)
(0.0010519002 3.6214604e-06 1.5416125e-06)
(0.0010259819 3.2805934e-06 1.3421847e-06)
(0.001002289 2.9733942e-06 1.1797308e-06)
(0.00098056199 2.697949e-06 1.0463201e-06)
(0.00096057572 2.4519212e-06 9.3658951e-07)
(0.00094213242 2.2325672e-06 8.4693314e-07)
(0.00092505792 2.0373867e-06 7.7316545e-07)
(0.00090920047 1.8640893e-06 7.1184225e-07)
(0.00089442818 1.710464e-06 6.6046737e-07)
(0.0008806259 1.574383e-06 6.1707396e-07)
(0.00086769295 1.4538609e-06 5.8005354e-07)
(0.00085554128 1.3470713e-06 5.481149e-07)
(0.00084409387 1.2523503e-06 5.2023893e-07)
(0.00083328322 1.1681985e-06 4.956269e-07)
(0.00082305015 1.0932618e-06 4.7365237e-07)
(0.00081334267 1.0262291e-06 4.5378267e-07)
(0.00080411486 9.6585929e-07 4.3554403e-07)
(0.00079532615 9.1131076e-07 4.1864998e-07)
(0.0007869407 8.6191751e-07 4.0290709e-07)
(0.00077892675 8.1708298e-07 3.8816788e-07)
(0.00077125603 7.7627675e-07 3.7432127e-07)
(0.0007639033 7.3902541e-07 3.6127609e-07)
(0.00075684598 7.0491436e-07 3.4896379e-07)
(0.00075006373 6.7357431e-07 3.3733127e-07)
(0.00074353822 6.4469352e-07 3.2633654e-07)
(0.00073725294 6.1802577e-07 3.1581816e-07)
(0.00073119314 5.9334825e-07 3.0574299e-07)
(0.00072534528 5.7041993e-07 2.9621085e-07)
(0.00071969687 5.4902547e-07 2.8716613e-07)
(0.00071423653 5.2901459e-07 2.7854372e-07)
(0.00070895386 5.1027366e-07 2.7031138e-07)
(0.00070383929 4.9268741e-07 2.6244836e-07)
(0.00069888397 4.7614429e-07 2.5493251e-07)
(0.00069407976 4.6054902e-07 2.4774351e-07)
(0.00068941911 4.4581964e-07 2.4086352e-07)
(0.00068489502 4.3188535e-07 2.3427612e-07)
(0.00068050098 4.1867941e-07 2.279647e-07)
(0.00067623091 4.061466e-07 2.2191286e-07)
(0.00067207915 3.9423462e-07 2.1610572e-07)
(0.00066804042 3.828969e-07 2.1053193e-07)
(0.00066410976 3.7209478e-07 2.0517824e-07)
(0.00066028251 3.6179483e-07 2.0003175e-07)
(0.00065655429 3.5196254e-07 1.9508301e-07)
(0.00065292099 3.4256941e-07 1.9031748e-07)
(0.00064937872 3.3358579e-07 1.8572834e-07)
(0.00064592384 3.2498828e-07 1.8130538e-07)
(0.00064255289 3.1675129e-07 1.7704102e-07)
(0.00063926261 3.0885639e-07 1.7292491e-07)
(0.00063604992 3.0128288e-07 1.6895101e-07)
(0.00063291192 2.9401263e-07 1.6511161e-07)
(0.00062984583 2.8703069e-07 1.6139802e-07)
(0.00062684904 2.8032134e-07 1.5780401e-07)
(0.00062391907 2.7387022e-07 1.543217e-07)
(0.00062105358 2.6766518e-07 1.5094313e-07)
(0.00061825035 2.6169474e-07 1.4766145e-07)
(0.00061550727 2.5594605e-07 1.4446899e-07)
(0.00061282235 2.5040719e-07 1.4135969e-07)
(0.00061019373 2.45068e-07 1.3832363e-07)
(0.00060761964 2.3991964e-07 1.3535602e-07)
(0.00060509845 2.3494589e-07 1.3244904e-07)
(0.00060262863 2.3013485e-07 1.2959829e-07)
(0.00060020873 2.2546961e-07 1.2680422e-07)
(0.00059783744 2.2093193e-07 1.2407589e-07)
(0.00059551348 2.1649889e-07 1.2143328e-07)
(0.00059323555 2.1214931e-07 1.1892956e-07)
(0.00059100214 2.078715e-07 1.1666183e-07)
(0.00058881114 2.0369041e-07 1.1483009e-07)
(0.00058665898 1.9973115e-07 1.138198e-07)
(0.0005845387 1.9638457e-07 1.1441085e-07)
(0.00058243501 1.9487201e-07 1.1837397e-07)
(0.00058031396 1.9977489e-07 1.3094381e-07)
(0.0005781161 2.2258512e-07 1.6397596e-07)
(0.00057566369 1.9706934e-07 1.5080566e-07)
(0.00056906201 7.889645e-07 7.5322557e-07)
(0.0095316863 0.0003313754 0.00022336697)
(0.0092716504 0.00041105942 0.00027052342)
(0.0087756651 0.00040317187 0.00026060062)
(0.0081527518 0.00038218754 0.00024252081)
(0.0075302151 0.00035309574 0.00022101125)
(0.0069425889 0.00031541062 0.00019648834)
(0.006391209 0.00027309198 0.00017102969)
(0.0058791845 0.00023030694 0.00014652546)
(0.0054120202 0.00019001855 0.00012410997)
(0.0049926512 0.00015423459 0.00010436627)
(0.004620592 0.00012408347 8.7479017e-05)
(0.0042931332 9.9809403e-05 7.3327495e-05)
(0.0040063965 8.0956424e-05 6.1601504e-05)
(0.0037559538 6.667221e-05 5.1918794e-05)
(0.0035372541 5.59858e-05 4.3907445e-05)
(0.003345947 4.7992055e-05 3.7246645e-05)
(0.0031780884 4.194171e-05 3.1677529e-05)
(0.0030302311 3.7262446e-05 2.699792e-05)
(0.0028994324 3.3540996e-05 2.3051138e-05)
(0.0027832152 3.0490244e-05 1.9714592e-05)
(0.0026795075 2.7915735e-05 1.6890543e-05)
(0.0025865783 2.568784e-05 1.4499382e-05)
(0.002502978 2.3720892e-05 1.2475015e-05)
(0.0024274871 2.1958431e-05 1.0761726e-05)
(0.0023590736 2.0362993e-05 9.3122312e-06)
(0.0022968589 1.8909454e-05 8.0861284e-06)
(0.0022400906 1.7580769e-05 7.0489629e-06)
(0.0021881216 1.6364897e-05 6.1714971e-06)
(0.0021403932 1.5251962e-05 5.4283141e-06)
(0.0020964214 1.4233849e-05 4.7973505e-06)
(0.0020557868 1.330304e-05 4.2604819e-06)
(0.0020181236 1.2451986e-05 3.8027038e-06)
(0.0019831119 1.1673909e-05 3.4109607e-06)
(0.0019504718 1.0962755e-05 3.0744202e-06)
(0.0019199589 1.0312855e-05 2.7842604e-06)
(0.0018913593 9.7188348e-06 2.5331805e-06)
(0.0018644851 9.1756444e-06 2.3150732e-06)
(0.0018391716 8.6785727e-06 2.1248301e-06)
(0.0018152735 8.2232428e-06 1.9581825e-06)
(0.0017926629 7.8056206e-06 1.8115665e-06)
(0.0017712268 7.4219979e-06 1.6820107e-06)
(0.001750865 7.0689378e-06 1.5670696e-06)
(0.0017314886 6.7432695e-06 1.4647428e-06)
(0.0017130186 6.4422728e-06 1.3732757e-06)
(0.0016953848 6.1635574e-06 1.2911592e-06)
(0.0016785241 5.9049776e-06 1.2171187e-06)
(0.00166238 5.6646099e-06 1.1500832e-06)
(0.0016469019 5.4407249e-06 1.0891485e-06)
(0.001632044 5.2317768e-06 1.0335534e-06)
(0.0016177649 5.0363836e-06 9.8265495e-07)
(0.0016040271 4.8533223e-06 9.3589412e-07)
(0.0015907965 4.6815625e-06 8.9273768e-07)
(0.0015780424 4.520157e-06 8.527864e-07)
(0.0015657364 4.3681544e-06 8.1576957e-07)
(0.0015538526 4.2246827e-06 7.8138565e-07)
(0.0015423672 4.0890602e-06 7.4934501e-07)
(0.0015312583 3.9607285e-06 7.1941311e-07)
(0.0015205058 3.8391513e-06 6.913879e-07)
(0.0015100909 3.7238113e-06 6.6509495e-07)
(0.0014999963 3.6142426e-06 6.4038035e-07)
(0.0014902061 3.5100296e-06 6.1710865e-07)
(0.0014807053 3.4107992e-06 5.9516089e-07)
(0.00147148 3.3162122e-06 5.7442751e-07)
(0.0014625175 3.2259594e-06 5.5481551e-07)
(0.0014538055 3.1397554e-06 5.3623516e-07)
(0.0014453328 3.0573355e-06 5.1861312e-07)
(0.0014370889 2.9784709e-06 5.018777e-07)
(0.0014290637 2.9029595e-06 4.8596806e-07)
(0.001421248 2.8306036e-06 4.7082389e-07)
(0.001413633 2.7612183e-06 4.5639222e-07)
(0.0014062104 2.6946332e-06 4.4262835e-07)
(0.0013989723 2.6306914e-06 4.2948668e-07)
(0.0013919116 2.5692452e-06 4.1692977e-07)
(0.0013850212 2.5101629e-06 4.0492095e-07)
(0.0013782945 2.4533182e-06 3.934257e-07)
(0.0013717253 2.3985942e-06 3.824115e-07)
(0.0013653078 2.3458842e-06 3.7185234e-07)
(0.0013590364 2.2950861e-06 3.6171825e-07)
(0.0013529058 2.246104e-06 3.5198481e-07)
(0.001346911 2.1988503e-06 3.4262701e-07)
(0.0013410472 2.1532425e-06 3.3362118e-07)
(0.0013353099 2.1091978e-06 3.2494515e-07)
(0.001329695 2.0666373e-06 3.1657858e-07)
(0.0013241983 2.0254874e-06 3.0850023e-07)
(0.001318816 1.985674e-06 3.0069062e-07)
(0.0013135446 1.9471142e-06 2.931312e-07)
(0.0013083808 1.9097267e-06 2.8580533e-07)
(0.0013033213 1.8734251e-06 2.7870284e-07)
(0.0012983632 1.8381167e-06 2.7181601e-07)
(0.0012935038 1.803715e-06 2.651541e-07)
(0.0012887402 1.7701702e-06 2.5874264e-07)
(0.0012840698 1.7375314e-06 2.5264942e-07)
(0.0012794889 1.7061208e-06 2.4701326e-07)
(0.0012749925 1.676909e-06 2.4211342e-07)
(0.001270572 1.6524672e-06 2.3851862e-07)
(0.0012662098 1.6393323e-06 2.3765949e-07)
(0.0012618709 1.6545768e-06 2.4458288e-07)
(0.0012574959 1.7463721e-06 2.7712496e-07)
(0.0012529717 2.0376717e-06 2.6526471e-07)
(0.0012433358 2.9514826e-06 1.3525325e-06)
(0.0095221617 0.00021179965 0.00022180581)
(0.009269783 0.00029872516 0.00026628967)
(0.0088657772 0.00031669844 0.00025526743)
(0.0083755729 0.000317438 0.00023864265)
(0.0078888426 0.00030841043 0.00021987851)
(0.0074276349 0.00028848207 0.00019850457)
(0.006988258 0.0002604839 0.00017617916)
(0.0065698164 0.00022855168 0.00015444521)
(0.0061756011 0.00019596771 0.00013413534)
(0.0058087146 0.00016504408 0.00011567593)
(0.0054706295 0.00013728621 9.9270839e-05)
(0.0051615551 0.00011345265 8.4947831e-05)
(0.0048808654 9.3684507e-05 7.2600737e-05)
(0.0046272998 7.7712987e-05 6.2044901e-05)
(0.0043991196 6.5057025e-05 5.3064543e-05)
(0.0041942886 5.5163888e-05 4.544363e-05)
(0.0040106431 4.7493346e-05 3.8982753e-05)
(0.0038460219 4.1561377e-05 3.3506381e-05)
(0.0036983537 3.6958194e-05 2.8864075e-05)
(0.0035657105 3.3351175e-05 2.4928487e-05)
(0.0034463343 3.0479503e-05 2.1592135e-05)
(0.003338646 2.8144768e-05 1.8764099e-05)
(0.003241243 2.6200154e-05 1.6367138e-05)
(0.0031528887 2.4539753e-05 1.4335368e-05)
(0.0030724986 2.3088867e-05 1.261249e-05)
(0.0029991252 2.1796113e-05 1.1150134e-05)
(0.0029319421 2.0626905e-05 9.9064812e-06)
(0.0028702292 1.9558161e-05 8.845816e-06)
(0.0028133589 1.8574037e-05 7.9385382e-06)
(0.0027607855 1.7663622e-05 7.159823e-06)
(0.0027120345 1.6818832e-05 6.4890355e-06)
(0.0026666927 1.6033066e-05 5.9090208e-06)
(0.0026243991 1.5301095e-05 5.4052719e-06)
(0.0025848382 1.4618819e-05 4.9656523e-06)
(0.0025477347 1.3982713e-05 4.5801148e-06)
(0.0025128472 1.3389544e-05 4.2403267e-06)
(0.002479964 1.2836281e-05 3.9393559e-06)
(0.0024488994 1.2320058e-05 3.671425e-06)
(0.0024194896 1.1838144e-05 3.4317262e-06)
(0.00239159 1.1387939e-05 3.2162512e-06)
(0.0023650729 1.0966986e-05 3.0216601e-06)
(0.0023398248 1.0573001e-05 2.8451733e-06)
(0.0023157449 1.0203874e-05 2.6844741e-06)
(0.0022927433 9.857581e-06 2.5375941e-06)
(0.0022707398 9.5322173e-06 2.4028633e-06)
(0.002249662 9.2260295e-06 2.2788665e-06)
(0.0022294453 8.9374194e-06 2.1643993e-06)
(0.0022100312 8.6649287e-06 2.058438e-06)
(0.0021913666 8.4072378e-06 1.960101e-06)
(0.0021734038 8.1631555e-06 1.868632e-06)
(0.0021560989 7.9316222e-06 1.7833669e-06)
(0.0021394122 7.7117241e-06 1.703709e-06)
(0.0021233074 7.5026011e-06 1.6291532e-06)
(0.0021077512 7.3033793e-06 1.5592832e-06)
(0.0020927129 7.113187e-06 1.4937203e-06)
(0.0020781645 6.9314155e-06 1.4321041e-06)
(0.0020640799 6.7576046e-06 1.374114e-06)
(0.0020504351 6.5912599e-06 1.3194612e-06)
(0.0020372075 6.4318777e-06 1.2678951e-06)
(0.0020243766 6.2790066e-06 1.2191873e-06)
(0.0020119231 6.1322425e-06 1.1731328e-06)
(0.001999829 5.9912206e-06 1.1295444e-06)
(0.0019880776 5.8556119e-06 1.0882501e-06)
(0.0019766531 5.7251046e-06 1.0490956e-06)
(0.0019655411 5.5994094e-06 1.0119381e-06)
(0.0019547276 5.4782459e-06 9.7664711e-07)
(0.0019441999 5.3613898e-06 9.4310054e-07)
(0.0019339458 5.2486489e-06 9.1118915e-07)
(0.0019239539 5.1398196e-06 8.8080755e-07)
(0.0019142135 5.0347025e-06 8.5186059e-07)
(0.0019047144 4.933119e-06 8.2425897e-07)
(0.001895447 4.8349011e-06 7.9792382e-07)
(0.0018864023 4.7398911e-06 7.7277947e-07)
(0.0018775718 4.6479436e-06 7.4875679e-07)
(0.0018689473 4.5589225e-06 7.2578786e-07)
(0.0018605211 4.4726997e-06 7.0381369e-07)
(0.0018522861 4.3891536e-06 6.827781e-07)
(0.0018442353 4.3081697e-06 6.6262531e-07)
(0.0018363621 4.2296393e-06 6.4330775e-07)
(0.0018286604 4.1534592e-06 6.247768e-07)
(0.0018211241 4.0795296e-06 6.0698884e-07)
(0.0018137478 4.007755e-06 5.8989976e-07)
(0.0018065261 3.9380363e-06 5.734722e-07)
(0.001799454 3.8702801e-06 5.5766729e-07)
(0.0017925266 3.8043824e-06 5.4244765e-07)
(0.0017857396 3.7402367e-06 5.2777829e-07)
(0.0017790885 3.6777274e-06 5.1362872e-07)
(0.0017725695 3.6167285e-06 4.9996879e-07)
(0.0017661787 3.5571088e-06 4.8677439e-07)
(0.0017599128 3.4987611e-06 4.740242e-07)
(0.0017537682 3.4416545e-06 4.6170914e-07)
(0.0017477416 3.3859632e-06 4.4983508e-07)
(0.0017418294 3.3323832e-06 4.3844208e-07)
(0.0017360272 3.2827917e-06 4.276463e-07)
(0.0017303281 3.2417772e-06 4.1776823e-07)
(0.0017247202 3.2200412e-06 4.0999101e-07)
(0.001719183 3.2421553e-06 4.098495e-07)
(0.001713691 3.3643436e-06 4.411444e-07)
(0.0017081999 3.7072193e-06 4.7353487e-07)
(0.0016974804 4.4611203e-06 1.8634989e-06)
(0.0095012861 0.00013951169 0.00022248511)
(0.0092133349 0.00022408324 0.00026709763)
(0.0088018509 0.0002570094 0.00025529581)
(0.0083306071 0.00026690691 0.0002382081)
(0.0078754299 0.00026502158 0.00021939837)
(0.0074527063 0.0002529565 0.00019823245)
(0.0070564396 0.00023295893 0.00017634609)
(0.0066827538 0.00020836345 0.0001552305)
(0.006331873 0.00018203353 0.00013558338)
(0.0060047052 0.00015603739 0.00011769036)
(0.0057015056 0.00013180401 0.00010166909)
(0.0054220192 0.00011020725 8.7524315e-05)
(0.0051656909 9.1631899e-05 7.5171986e-05)
(0.0049316845 7.6091185e-05 6.4472618e-05)
(0.0047188814 6.3363143e-05 5.5261149e-05)
(0.0045259349 5.3104942e-05 4.736682e-05)
(0.0043513547 4.4932757e-05 4.0624898e-05)
(0.0041935865 3.847136e-05 3.4883031e-05)
(0.0040510752 3.3381245e-05 3.0003996e-05)
(0.0039223115 2.937051e-05 2.5866182e-05)
(0.0038058643 2.6197263e-05 2.2362868e-05)
(0.0037004012 2.3666732e-05 1.9400962e-05)
(0.0036047 2.1625758e-05 1.689961e-05)
(0.0035176529 1.9956328e-05 1.4788823e-05)
(0.0034382652 1.8569048e-05 1.3008104e-05)
(0.0033656513 1.7397362e-05 1.1504744e-05)
(0.0032990266 1.6392003e-05 1.0233522e-05)
(0.0032376995 1.5516241e-05 9.1565348e-06)
(0.0031810636 1.4743888e-05 8.242111e-06)
(0.0031285885 1.4056152e-05 7.4635745e-06)
(0.0030798115 1.3438893e-05 6.79852e-06)
(0.0030343294 1.2881151e-05 6.2282214e-06)
(0.0029917905 1.2374494e-05 5.7369819e-06)
(0.0029518882 1.1912419e-05 5.3116655e-06)
(0.0029143553 1.148969e-05 4.9413538e-06)
(0.0028789586 1.1101928e-05 4.6170012e-06)
(0.0028454946 1.0745379e-05 4.3311218e-06)
(0.0028137847 1.0416775e-05 4.0775283e-06)
(0.0027836727 1.0113219e-05 3.8511087e-06)
(0.0027550209 9.832121e-06 3.6476454e-06)
(0.0027277081 9.5711602e-06 3.4636646e-06)
(0.002701627 9.3282503e-06 3.2963001e-06)
(0.0026766823 9.1015154e-06 3.1431917e-06)
(0.0026527895 8.8892439e-06 3.0023822e-06)
(0.0026298729 8.6898933e-06 2.8722552e-06)
(0.0026078648 8.5020901e-06 2.7514704e-06)
(0.002586704 8.3246177e-06 2.6389096e-06)
(0.0025663358 8.1563963e-06 2.533642e-06)
(0.0025467102 7.9964776e-06 2.4348844e-06)
(0.002527782 7.8440282e-06 2.3419788e-06)
(0.0025095101 7.6983372e-06 2.2543607e-06)
(0.0024918566 7.5588102e-06 2.1715447e-06)
(0.0024747872 7.4248993e-06 2.0931128e-06)
(0.0024582699 7.2960211e-06 2.0187195e-06)
(0.0024422756 7.1714389e-06 1.9480689e-06)
(0.0024267775 7.0509279e-06 1.8808983e-06)
(0.0024117506 6.9343765e-06 1.8169527e-06)
(0.0023971715 6.8214893e-06 1.7560027e-06)
(0.0023830185 6.7119561e-06 1.6978531e-06)
(0.0023692714 6.6055385e-06 1.6423281e-06)
(0.0023559116 6.5020454e-06 1.5892726e-06)
(0.0023429214 6.4013086e-06 1.5385385e-06)
(0.0023302844 6.3031806e-06 1.4899947e-06)
(0.0023179851 6.2075244e-06 1.4435162e-06)
(0.0023060089 6.1142031e-06 1.3989938e-06)
(0.0022943424 6.0230683e-06 1.356326e-06)
(0.0022829727 5.9340572e-06 1.3154156e-06)
(0.0022718877 5.8471295e-06 1.2761703e-06)
(0.002261076 5.7622053e-06 1.2385012e-06)
(0.0022505267 5.679199e-06 1.2023306e-06)
(0.0022402296 5.5980423e-06 1.1675828e-06)
(0.0022301752 5.5186735e-06 1.1341876e-06)
(0.0022203542 5.4410324e-06 1.1020806e-06)
(0.002210758 5.3650639e-06 1.0711998e-06)
(0.0022013784 5.2907182e-06 1.0414846e-06)
(0.0021922076 5.2179494e-06 1.0128824e-06)
(0.0021832381 5.1467105e-06 9.853391e-07)
(0.0021744628 5.0769588e-06 9.5880317e-07)
(0.0021658752 5.0086514e-06 9.3323082e-07)
(0.0021574688 4.9417466e-06 9.0857495e-07)
(0.0021492375 4.8761992e-06 8.8479079e-07)
(0.0021411756 4.8119675e-06 8.6183908e-07)
(0.0021332776 4.748999e-06 8.396781e-07)
(0.0021255383 4.6872397e-06 8.1827089e-07)
(0.0021179527 4.626622e-06 7.9757687e-07)
(0.0021105161 4.5670671e-06 7.7756093e-07)
(0.0021032242 4.5084826e-06 7.5818426e-07)
(0.0020960727 4.4507565e-06 7.3941096e-07)
(0.0020890577 4.3937753e-06 7.2120409e-07)
(0.0020821756 4.3374547e-06 7.0352089e-07)
(0.002075423 4.2818112e-06 6.8632245e-07)
(0.0020687967 4.227134e-06 6.6956184e-07)
(0.0020622937 4.1743556e-06 6.5320376e-07)
(0.002055911 4.1258155e-06 6.372618e-07)
(0.0020496453 4.0868291e-06 6.2198434e-07)
(0.0020434926 4.0687769e-06 6.0874708e-07)
(0.0020374483 4.0948759e-06 6.0452121e-07)
(0.0020315149 4.2094241e-06 6.3987854e-07)
(0.0020256647 4.4797476e-06 7.1688438e-07)
(0.0020144539 4.9057771e-06 2.2695257e-06)
(0.0094902877 9.6726608e-05 0.00022289229)
(0.00917661 0.00016632333 0.00026788105)
(0.0087449456 0.00019969046 0.00025550648)
(0.0082664657 0.00021101604 0.00023762681)
(0.00781215 0.0002109939 0.0002181603)
(0.0073950862 0.0002028236 0.00019646328)
(0.0070087986 0.00018827265 0.00017418493)
(0.006648835 0.00016968865 0.0001528463)
(0.0063142174 0.00014929331 0.00013312182)
(0.0060045996 0.00012875288 0.0001152379)
(0.0057192201 0.00010923292 9.925679e-05)
(0.0054570682 9.1490073e-05 8.514891e-05)
(0.0052170782 7.5923401e-05 7.2816212e-05)
(0.0049981259 6.2643331e-05 6.2119134e-05)
(0.0047989841 5.1561152e-05 5.2900048e-05)
(0.0046183234 4.2472279e-05 4.4997976e-05)
(0.0044547458 3.5118725e-05 3.8256897e-05)
(0.0043068267 2.9230544e-05 3.2530442e-05)
(0.0041731526 2.4550835e-05 2.7684339e-05)
(0.0040523509 2.0849111e-05 2.3597362e-05)
(0.0039431142 1.7926912e-05 2.0161345e-05)
(0.0038442168 1.5618599e-05 1.7280681e-05)
(0.0037545253 1.3789364e-05 1.4871531e-05)
(0.0036730042 1.2331758e-05 1.2860862e-05)
(0.0035987172 1.1161538e-05 1.1185211e-05)
(0.0035308247 1.0213366e-05 9.7889737e-06)
(0.0034685786 9.4380825e-06 8.6250716e-06)
(0.0034113173 8.7971277e-06 7.6543151e-06)
(0.0033584589 8.2627213e-06 6.8439392e-06)
(0.0033094933 7.8140828e-06 6.1664549e-06)
(0.0032639753 7.4348238e-06 5.5988448e-06)
(0.0032215172 7.1121296e-06 5.121926e-06)
(0.0031817817 6.8360951e-06 4.7197268e-06)
(0.0031444758 6.5990194e-06 4.3789731e-06)
(0.0031093448 6.3947795e-06 4.088681e-06)
(0.0030761678 6.2184053e-06 3.839797e-06)
(0.0030447526 6.0657961e-06 3.6248778e-06)
(0.003014932 5.9335269e-06 3.437817e-06)
(0.0029865602 5.8186969e-06 3.2736176e-06)
(0.0029595097 5.7188195e-06 3.128205e-06)
(0.002933669 5.6317491e-06 2.9982612e-06)
(0.00290894 5.555626e-06 2.8810965e-06)
(0.0028852364 5.4888245e-06 2.7745332e-06)
(0.0028624815 5.4299133e-06 2.6768094e-06)
(0.0028406075 5.377643e-06 2.5865045e-06)
(0.0028195538 5.3309232e-06 2.5024723e-06)
(0.0027992664 5.2888095e-06 2.4237886e-06)
(0.0027796963 5.250483e-06 2.349711e-06)
(0.0027607998 5.2152424e-06 2.2796379e-06)
(0.002742537 5.1824979e-06 2.2130842e-06)
(0.0027248717 5.1517662e-06 2.1496538e-06)
(0.0027077708 5.1226678e-06 2.0890226e-06)
(0.0026912041 5.0948968e-06 2.0309203e-06)
(0.0026751435 5.0680855e-06 1.9751363e-06)
(0.0026595636 5.0410656e-06 1.9215389e-06)
(0.0026444411 5.0142592e-06 1.8699676e-06)
(0.002629754 4.9880185e-06 1.8202524e-06)
(0.0026154815 4.9620723e-06 1.7722791e-06)
(0.0026016045 4.936142e-06 1.7259609e-06)
(0.0025881054 4.9100857e-06 1.6812154e-06)
(0.0025749674 4.8838329e-06 1.6379666e-06)
(0.002562175 4.8573394e-06 1.5961459e-06)
(0.0025497136 4.8305798e-06 1.5556928e-06)
(0.0025375693 4.8035378e-06 1.5165489e-06)
(0.0025257292 4.7761742e-06 1.4786617e-06)
(0.002514181 4.7483843e-06 1.441986e-06)
(0.0025029134 4.7202755e-06 1.4064832e-06)
(0.0024919154 4.6919147e-06 1.3721014e-06)
(0.0024811765 4.6632909e-06 1.3387972e-06)
(0.002470687 4.6344022e-06 1.3065286e-06)
(0.0024604377 4.6052678e-06 1.2752606e-06)
(0.0024504197 4.5759095e-06 1.2449549e-06)
(0.0024406247 4.5463473e-06 1.2155758e-06)
(0.0024310448 4.5166016e-06 1.1870937e-06)
(0.0024216723 4.4866968e-06 1.1594734e-06)
(0.0024125001 4.4566521e-06 1.1326843e-06)
(0.0024035213 4.4264904e-06 1.1066978e-06)
(0.0023947295 4.3962303e-06 1.081483e-06)
(0.0023861184 4.3658912e-06 1.0570131e-06)
(0.0023776821 4.3354897e-06 1.0332596e-06)
(0.0023694149 4.3050342e-06 1.0101965e-06)
(0.0023613115 4.2745363e-06 9.8779525e-07)
(0.0023533667 4.2439938e-06 9.6603003e-07)
(0.0023455757 4.2133966e-06 9.4487545e-07)
(0.0023379338 4.1827212e-06 9.2429956e-07)
(0.0023304365 4.1519273e-06 9.0427593e-07)
(0.0023230798 4.1209544e-06 8.8477205e-07)
(0.0023158598 4.0897262e-06 8.6575314e-07)
(0.0023087726 4.0581569e-06 8.4717274e-07)
(0.002301815 4.0261913e-06 8.2898069e-07)
(0.0022949838 3.9938766e-06 8.1110703e-07)
(0.0022882766 3.9615308e-06 7.934635e-07)
(0.002281691 3.9300783e-06 7.7594389e-07)
(0.0022752261 3.9016918e-06 7.5847826e-07)
(0.002268882 3.880939e-06 7.4124709e-07)
(0.0022626608 3.8766463e-06 7.2572617e-07)
(0.0022565686 3.9043032e-06 7.1957901e-07)
(0.0022506189 3.9866535e-06 7.5579944e-07)
(0.0022447715 4.1390989e-06 8.493175e-07)
(0.002233564 4.2832252e-06 2.4122105e-06)
(0.0094843561 6.6886585e-05 0.00022303624)
(0.0091549219 0.00011904886 0.00026838771)
(0.0087072816 0.00014772497 0.00025588053)
(0.0082191888 0.00015892952 0.00023765677)
(0.0077602858 0.00016026049 0.00021787142)
(0.0073412804 0.00015505102 0.00019586613)
(0.0069552494 0.00014481701 0.00017327438)
(0.0065978366 0.00013121474 0.00015165024)
(0.0062677954 0.00011592881 0.00013169211)
(0.0059642872 0.00010028521 0.0001136244)
(0.0056860598 8.5214432e-05 9.7497522e-05)
(0.0054316726 7.1330409e-05 8.3272195e-05)
(0.0051997008 5.89843e-05 7.0844884e-05)
(0.0049887459 4.8311755e-05 6.0073374e-05)
(0.0047973943 3.9291583e-05 5.079889e-05)
(0.0046242055 3.1804355e-05 4.2859903e-05)
(0.0044677269 2.5679086e-05 3.6099808e-05)
(0.0043265179 2.0725786e-05 3.0371291e-05)
(0.0041991724 1.6756344e-05 2.5538702e-05)
(0.004084339 1.3596837e-05 2.1479083e-05)
(0.0039807371 1.1093752e-05 1.8082322e-05)
(0.0038871692 9.1161632e-06 1.525079e-05)
(0.0038025288 7.5553792e-06 1.2898647e-05)
(0.003725804 6.3231328e-06 1.0950986e-05)
(0.0036560786 5.3488177e-06 9.3426779e-06)
(0.0035925304 4.5751808e-06 8.0166139e-06)
(0.0035344253 3.962099e-06 6.9239494e-06)
(0.0034811131 3.4726264e-06 6.0250733e-06)
(0.0034320221 3.0815191e-06 5.2862633e-06)
(0.0033866501 2.7702767e-06 4.679211e-06)
(0.0033445586 2.5236735e-06 4.1805218e-06)
(0.0033053662 2.3295851e-06 3.770753e-06)
(0.0032687419 2.1784964e-06 3.4337448e-06)
(0.0032343982 2.062905e-06 3.1561108e-06)
(0.0032020863 1.9768095e-06 2.9267971e-06)
(0.0031715907 1.915317e-06 2.7367038e-06)
(0.0031427248 1.8743796e-06 2.578355e-06)
(0.0031153267 1.8506042e-06 2.4456288e-06)
(0.0030892563 1.8411243e-06 2.3335228e-06)
(0.0030643915 1.8434985e-06 2.2379666e-06)
(0.003040626 1.8556442e-06 2.1556635e-06)
(0.0030178671 1.8757803e-06 2.0839518e-06)
(0.0029960335 1.9023803e-06 2.0206936e-06)
(0.0029750538 1.9341326e-06 1.9641812e-06)
(0.0029548649 1.9699156e-06 1.913052e-06)
(0.0029354109 2.0087624e-06 1.8662266e-06)
(0.0029166424 2.0498587e-06 1.8228516e-06)
(0.0028985148 2.0925102e-06 1.7822559e-06)
(0.0028809886 2.1361376e-06 1.7439151e-06)
(0.0028640277 2.1802715e-06 1.7074103e-06)
(0.0028476 2.2245517e-06 1.6724143e-06)
(0.0028316758 2.2687609e-06 1.6386555e-06)
(0.0028162284 2.3128938e-06 1.6058724e-06)
(0.0028012324 2.3570785e-06 1.573822e-06)
(0.0027866658 2.3978709e-06 1.543188e-06)
(0.0027725089 2.4362345e-06 1.5136871e-06)
(0.0027587418 2.4734405e-06 1.4848881e-06)
(0.002745346 2.5095338e-06 1.4567004e-06)
(0.002732305 2.5443503e-06 1.4291162e-06)
(0.0027196032 2.5777735e-06 1.4021117e-06)
(0.0027072261 2.609725e-06 1.3756638e-06)
(0.0026951602 2.640165e-06 1.3497558e-06)
(0.0026833928 2.6690868e-06 1.3243741e-06)
(0.0026719116 2.6965029e-06 1.2995095e-06)
(0.0026607054 2.7223726e-06 1.2751541e-06)
(0.0026497635 2.7463567e-06 1.2513138e-06)
(0.002639076 2.7689087e-06 1.2279785e-06)
(0.0026286333 2.7901469e-06 1.2051288e-06)
(0.0026184262 2.8099929e-06 1.1827616e-06)
(0.0026084461 2.8284324e-06 1.1608702e-06)
(0.0025986849 2.8454937e-06 1.1394488e-06)
(0.0025891348 2.8612184e-06 1.1184916e-06)
(0.0025797885 2.8756488e-06 1.0979863e-06)
(0.002570639 2.8888292e-06 1.0779294e-06)
(0.0025616795 2.9008068e-06 1.0583092e-06)
(0.0025529038 2.9116202e-06 1.0391185e-06)
(0.0025443058 2.9213159e-06 1.0203495e-06)
(0.0025358796 2.9299308e-06 1.0019896e-06)
(0.0025276198 2.9375076e-06 9.8403163e-07)
(0.002519521 2.9440818e-06 9.6646543e-07)
(0.0025115783 2.9496829e-06 9.4927896e-07)
(0.0025037869 2.9543377e-06 9.3246158e-07)
(0.0024961421 2.9580688e-06 9.1600051e-07)
(0.0024886396 2.9608824e-06 8.9988078e-07)
(0.0024812752 2.9627744e-06 8.840855e-07)
(0.002474045 2.9637229e-06 8.685947e-07)
(0.0024669452 2.9636881e-06 8.5338203e-07)
(0.0024599723 2.962613e-06 8.3841368e-07)
(0.0024531231 2.9604304e-06 8.2364328e-07)
(0.0024463945 2.9570954e-06 8.090038e-07)
(0.0024397839 2.9526497e-06 7.9439868e-07)
(0.0024332895 2.9473503e-06 7.7969438e-07)
(0.0024269099 2.9419121e-06 7.6470854e-07)
(0.0024206457 2.937921e-06 7.4925938e-07)
(0.0024144993 2.9384184e-06 7.3336508e-07)
(0.0024084767 2.9484938e-06 7.1826432e-07)
(0.0024025877 2.9751231e-06 7.1113336e-07)
(0.002396846 3.0234595e-06 7.4331289e-07)
(0.0023911946 3.0808286e-06 8.3046623e-07)
(0.0023803644 3.0574248e-06 2.2999442e-06)
(0.0094810492 4.4090134e-05 0.00022308885)
(0.0091422796 7.9975481e-05 0.00026874495)
(0.0086839084 0.00010160921 0.00025628771)
(0.0081880903 0.00011101591 0.00023793456)
(0.0077246858 0.00011275118 0.00021798622)
(0.0073029895 0.00010953687 0.00019578738)
(0.0069155191 0.00010266029 0.00017296032)
(0.0065579578 9.3267237e-05 0.0001510852)
(0.006229001 8.2539594e-05 0.00013089045)
(0.005927585 7.1446834e-05 0.00011261412)
(0.0056522063 6.067336e-05 9.6309239e-05)
(0.0054012005 5.0670809e-05 8.1936268e-05)
(0.0051729477 4.170661e-05 6.9390832e-05)
(0.004965887 3.3898116e-05 5.8529097e-05)
(0.0047784814 2.7249954e-05 4.9189878e-05)
(0.0046092054 2.1693074e-05 4.1208773e-05)
(0.0044565535 1.7117438e-05 3.4426144e-05)
(0.0043190553 1.3395519e-05 2.8691658e-05)
(0.0041952917 1.0397812e-05 2.3866803e-05)
(0.0040839086 8.0023311e-06 1.9826011e-05)
(0.0039836292 6.0997696e-06 1.645686e-05)
(0.0038932634 4.5956628e-06 1.3659715e-05)
(0.0038117126 3.4106734e-06 1.1347012e-05)
(0.0037379734 2.4799288e-06 9.442292e-06)
(0.0036711359 1.7515109e-06 7.8790892e-06)
(0.0036103859 1.1749044e-06 6.6010321e-06)
(0.0035549935 7.2234059e-07 5.5561208e-06)
(0.0035043108 3.7342441e-07 4.7060703e-06)
(0.0034577717 1.0569459e-07 4.0163444e-06)
(0.0034148763 -9.909105e-08 3.4574139e-06)
(0.0033751872 -2.5333693e-07 3.0054957e-06)
(0.0033383243 -3.6640115e-07 2.6409736e-06)
(0.0033039576 -4.4578028e-07 2.3475719e-06)
(0.0032718009 -4.9748333e-07 2.1118259e-06)
(0.0032416065 -5.2634547e-07 1.9226418e-06)
(0.0032131599 -5.36311e-07 1.770915e-06)
(0.0031862758 -5.3064069e-07 1.6492027e-06)
(0.0031607936 -5.1206364e-07 1.5514408e-06)
(0.0031365743 -4.8287263e-07 1.4727103e-06)
(0.0031134976 -4.450078e-07 1.4090331e-06)
(0.0030914586 -4.0011171e-07 1.3572057e-06)
(0.0030703663 -3.4957848e-07 1.3146558e-06)
(0.0030501409 -2.9459551e-07 1.2793305e-06)
(0.0030307129 -2.3617092e-07 1.2495909e-06)
(0.0030120207 -1.7516521e-07 1.2241398e-06)
(0.0029940105 -1.1232077e-07 1.2019529e-06)
(0.0029766343 -4.8267362e-08 1.1822227e-06)
(0.0029598495 1.6450075e-08 1.1643215e-06)
(0.0029436181 8.1356516e-08 1.1477527e-06)
(0.002927906 1.4602581e-07 1.1321241e-06)
(0.0029126825 2.1005934e-07 1.1171183e-06)
(0.0028979201 2.7305037e-07 1.1024391e-06)
(0.0028835935 3.3454208e-07 1.0876601e-06)
(0.0028696773 3.9432384e-07 1.072202e-06)
(0.0028561514 4.5704905e-07 1.0590086e-06)
(0.0028429997 5.2060013e-07 1.0472576e-06)
(0.0028302035 5.8225376e-07 1.0356078e-06)
(0.0028177449 6.4163847e-07 1.0238008e-06)
(0.0028056084 6.9901891e-07 1.0118748e-06)
(0.0027937799 7.5456121e-07 9.9986908e-07)
(0.0027822461 8.0834961e-07 9.8781068e-07)
(0.0027709946 8.6046756e-07 9.7571938e-07)
(0.0027600137 9.1102429e-07 9.6360283e-07)
(0.0027492926 9.6019419e-07 9.5144713e-07)
(0.0027388207 1.0080057e-06 9.3926739e-07)
(0.0027285887 1.0528504e-06 9.2746463e-07)
(0.0027185878 1.0958661e-06 9.1582909e-07)
(0.0027088089 1.1375005e-06 9.0425263e-07)
(0.0026992438 1.1777672e-06 8.927591e-07)
(0.0026898847 1.2166575e-06 8.8136567e-07)
(0.0026807244 1.2541704e-06 8.7007948e-07)
(0.0026717559 1.2903144e-06 8.589074e-07)
(0.0026629726 1.3251078e-06 8.478532e-07)
(0.0026543682 1.3585736e-06 8.3692269e-07)
(0.0026459367 1.3907406e-06 8.2612163e-07)
(0.0026376723 1.4216362e-06 8.1545221e-07)
(0.0026295698 1.4512913e-06 8.0491922e-07)
(0.0026216238 1.479732e-06 7.9452298e-07)
(0.0026138294 1.5069911e-06 7.8426273e-07)
(0.002606182 1.5330939e-06 7.7413959e-07)
(0.0025986769 1.5580648e-06 7.6415164e-07)
(0.0025913099 1.5819215e-06 7.5429517e-07)
(0.0025840769 1.6046825e-06 7.4456444e-07)
(0.0025769739 1.6263507e-06 7.3495266e-07)