/*--------------------------------*- C++ -*----------------------------------*\
  =========                 |
  \\      /  F ield         | OpenFOAM: The Open Source CFD Toolbox
   \\    /   O peration     | Website:  https://openfoam.org
    \\  /    A nd           | Version:  7
     \\/     M anipulation  |
\*---------------------------------------------------------------------------*/
FoamFile
{
    version     2.0;
    format      ascii;
    class       surfaceScalarField;
    location    "3300/water";
    object      phi;
}
// * * * * * * * * * * * * * * * * * * * * * * * * * * * * * * * * * * * * * //

dimensions      [1 0 -1 0 0 0 0];

internalField   nonuniform List<scalar> 
156660
(
9.9057239e-05
6.0010402e-06
6.0528092e-06
8.6847498e-05
6.0555113e-06
6.1542307e-06
7.5687891e-05
5.5111362e-06
5.6484701e-06
6.5441704e-05
5.0404181e-06
5.2057689e-06
5.6267661e-05
4.4956436e-06
4.6783991e-06
4.8318019e-05
3.8797648e-06
4.0698777e-06
4.1624776e-05
3.2524449e-06
3.4407982e-06
3.6124897e-05
2.660462e-06
2.839417e-06
3.1692235e-05
2.1345127e-06
2.2981489e-06
2.8162841e-05
1.6926975e-06
1.8366964e-06
2.5361437e-05
1.3399933e-06
1.4614113e-06
2.3124664e-05
1.0698477e-06
1.1669256e-06
2.1315127e-05
8.6875418e-07
9.4078226e-07
1.9825714e-05
7.2110066e-07
7.6831273e-07
1.8577278e-05
6.1248247e-07
6.3595305e-07
1.7513255e-05
5.3125218e-07
5.3277147e-07
1.6593744e-05
4.6879724e-07
4.5071351e-07
1.5790433e-05
4.1913715e-07
3.8417387e-07
1.5082784e-05
3.7829071e-07
3.2935849e-07
1.4455417e-05
3.436713e-07
2.8369562e-07
1.3896409e-05
3.1361409e-07
2.4539335e-07
1.339622e-05
2.8704451e-07
2.1314456e-07
1.2947015e-05
2.6326033e-07
1.8594511e-07
1.2542237e-05
2.4179367e-07
1.6298459e-07
1.2176318e-05
2.2232206e-07
1.4359691e-07
1.1844484e-05
2.0461479e-07
1.2721882e-07
1.1542609e-05
1.8849493e-07
1.1337972e-07
1.1267116e-05
1.738157e-07
1.0167793e-07
1.1014892e-05
1.604627e-07
9.1760823e-08
1.0783252e-05
1.4833967e-07
8.3300616e-08
1.0569851e-05
1.3734903e-07
7.6052137e-08
1.0372614e-05
1.2738861e-07
6.9848306e-08
1.0189731e-05
1.1836809e-07
6.4514846e-08
1.001963e-05
1.1020448e-07
5.9896636e-08
9.8609388e-06
1.0281921e-07
5.5871653e-08
9.7124594e-06
9.6137933e-08
5.2341364e-08
9.5731439e-06
9.0091164e-08
4.9224369e-08
9.4420759e-06
8.4614462e-08
4.6453569e-08
9.3184531e-06
7.9648643e-08
4.3974109e-08
9.2015723e-06
7.5139727e-08
4.1741091e-08
9.0908166e-06
7.1038146e-08
3.9717566e-08
8.9856431e-06
6.7301116e-08
3.787232e-08
8.8855707e-06
6.3894237e-08
3.6178167e-08
8.7901757e-06
6.0780076e-08
3.4614951e-08
8.6990829e-06
5.7926156e-08
3.3166655e-08
8.611959e-06
5.5303731e-08
3.1820143e-08
8.5285072e-06
5.288744e-08
3.0564407e-08
8.4484618e-06
5.0655064e-08
2.9390303e-08
8.3715848e-06
4.8587039e-08
2.8290017e-08
8.2976614e-06
4.6666175e-08
2.7257213e-08
8.2264975e-06
4.4877483e-08
2.6286433e-08
8.1579202e-06
4.320879e-08
2.5368522e-08
8.0917731e-06
4.1649031e-08
2.4498027e-08
8.0279108e-06
4.0186979e-08
2.3675353e-08
7.9662006e-06
3.8812707e-08
2.2897547e-08
7.9065219e-06
3.7518421e-08
2.2160236e-08
7.8487639e-06
3.6297867e-08
2.1460167e-08
7.7928242e-06
3.5145155e-08
2.0794593e-08
7.7386084e-06
3.4054625e-08
2.0161173e-08
7.6860293e-06
3.3021346e-08
1.9557704e-08
7.6350062e-06
3.2040801e-08
1.8982272e-08
7.5854641e-06
3.1109045e-08
1.8433089e-08
7.537333e-06
3.0222613e-08
1.7908513e-08
7.4905478e-06
2.9378225e-08
1.7406997e-08
7.4450476e-06
2.8572998e-08
1.6927201e-08
7.4007756e-06
2.7804227e-08
1.64678e-08
7.3576783e-06
2.7069602e-08
1.6027617e-08
7.3157056e-06
2.6367064e-08
1.5605639e-08
7.2748103e-06
2.5694668e-08
1.5200665e-08
7.2349479e-06
2.5050593e-08
1.4811819e-08
7.1960766e-06
2.4433091e-08
1.4438176e-08
7.158157e-06
2.3840676e-08
1.4078937e-08
7.1211518e-06
2.3271936e-08
1.3733292e-08
7.0850258e-06
2.2725503e-08
1.3400526e-08
7.0497457e-06
2.2200212e-08
1.3079943e-08
7.0152798e-06
2.1694932e-08
1.2770912e-08
6.9815985e-06
2.120857e-08
1.2472753e-08
6.9486733e-06
2.0740237e-08
1.2184925e-08
6.9164775e-06
2.0288983e-08
1.1906803e-08
6.8849858e-06
1.9853948e-08
1.163783e-08
6.8541739e-06
1.9434361e-08
1.1377461e-08
6.8240194e-06
1.9029475e-08
1.112511e-08
6.7945006e-06
1.8638492e-08
1.0880247e-08
6.7655975e-06
1.8260764e-08
1.0642331e-08
6.7372913e-06
1.7895554e-08
1.0410758e-08
6.7095641e-06
1.7542107e-08
1.0185085e-08
6.6823996e-06
1.7199623e-08
9.9648672e-09
6.6557824e-06
1.6867273e-08
9.7497991e-09
6.6296983e-06
1.6544152e-08
9.539963e-09
6.6041331e-06
1.622929e-08
9.3359898e-09
6.5790714e-06
1.5921973e-08
9.1396794e-09
6.554494e-06
1.5622322e-08
8.9550888e-09
6.5303708e-06
1.5332547e-08
8.790675e-09
6.5066467e-06
1.506046e-08
8.6636085e-09
6.4832094e-06
1.4827802e-08
8.6095155e-09
6.4598103e-06
1.469307e-08
8.7060266e-09
6.4358388e-06
1.4826417e-08
9.1451425e-09
6.4096303e-06
1.5741743e-08
1.0466738e-08
6.3782855e-06
1.8026551e-08
1.3318217e-08
3.2300213e-08
2.7923546e-08
0.00010646494
4.1872385e-06
6.4599816e-06
0.0001002019
5.695418e-06
6.6231353e-06
9.3659588e-05
5.7790389e-06
6.2744098e-06
8.7011589e-05
5.6514782e-06
6.0369387e-06
8.0422927e-05
5.366912e-06
5.7173941e-06
7.4094022e-05
4.9022832e-06
5.3063862e-06
6.8167026e-05
4.3278135e-06
4.8516272e-06
6.2722565e-05
3.717891e-06
4.387032e-06
5.7799049e-05
3.1243144e-06
3.9337145e-06
5.3403345e-05
2.5820689e-06
3.5063328e-06
4.9517402e-05
2.1121062e-06
3.1138299e-06
4.6105482e-05
1.7220197e-06
2.7597473e-06
4.3121558e-05
1.4089354e-06
2.4437429e-06
4.0515558e-05
1.1637552e-06
2.163346e-06
3.8237948e-05
9.7485852e-07
1.9152336e-06
3.6242683e-05
8.3055976e-07
1.6959573e-06
3.4488759e-05
7.2043697e-07
1.5022849e-06
3.2940716e-05
6.3586297e-07
1.3313172e-06
3.1568463e-05
5.7005006e-07
1.1804931e-06
3.0346733e-05
5.1784898e-07
1.0475522e-06
2.9254398e-05
4.7545958e-07
9.3049032e-07
2.8273782e-05
4.4013958e-07
8.2752022e-07
2.7390054e-05
4.0994893e-07
7.3704009e-07
2.6590699e-05
3.8353956e-07
6.5760859e-07
2.5865102e-05
3.5998888e-07
5.8793076e-07
2.5204197e-05
3.3867631e-07
5.2684263e-07
2.4600205e-05
3.1918357e-07
4.7330347e-07
2.4046429e-05
3.0120191e-07
4.2639018e-07
2.3537073e-05
2.8455207e-07
3.8526713e-07
2.3067119e-05
2.69111e-07
3.491824e-07
2.2632208e-05
2.5478166e-07
3.1747786e-07
2.2228528e-05
2.4147383e-07
2.8959533e-07
2.1852744e-05
2.2911071e-07
2.6504124e-07
2.1501947e-05
2.1762893e-07
2.4337257e-07
2.1173591e-05
2.0696952e-07
2.2420575e-07
2.0865444e-05
1.9707566e-07
2.0720866e-07
2.0575549e-05
1.8789255e-07
1.9209398e-07
2.0302183e-05
1.7936723e-07
1.7861344e-07
2.0043829e-05
1.7144908e-07
1.6655324e-07
1.979915e-05
1.640898e-07
1.5572944e-07
1.956696e-05
1.5724379e-07
1.4598405e-07
1.934621e-05
1.5086896e-07
1.3718221e-07
1.9135969e-05
1.4492653e-07
1.2920886e-07
1.8935407e-05
1.3937904e-07
1.2196308e-07
1.8743783e-05
1.3419231e-07
1.1535764e-07
1.8560435e-05
1.2933509e-07
1.0931726e-07
1.8384766e-05
1.2477909e-07
1.0377715e-07
1.8216241e-05
1.204985e-07
9.8681291e-08
1.8054377e-05
1.1647013e-07
9.398131e-08
1.7898734e-05
1.1267292e-07
8.9635426e-08
1.7748917e-05
1.0908821e-07
8.5606988e-08
1.7604563e-05
1.0570004e-07
8.1862386e-08
1.7465345e-05
1.0249338e-07
7.8373273e-08
1.7330962e-05
9.9452979e-08
7.5116964e-08
1.7201138e-05
9.6564409e-08
7.2072705e-08
1.7075619e-05
9.3816635e-08
6.9221125e-08
1.695417e-05
9.1201103e-08
6.6545082e-08
1.6836577e-05
8.8709117e-08
6.402954e-08
1.6722638e-05
8.6331967e-08
6.1661055e-08
1.661217e-05
8.4061756e-08
5.94277e-08
1.6505001e-05
8.1891535e-08
5.7318828e-08
1.640097e-05
7.9814929e-08
5.532484e-08
1.6299929e-05
7.7826159e-08
5.3437138e-08
1.620174e-05
7.5919867e-08
5.1647908e-08
1.6106272e-05
7.4091022e-08
4.9950123e-08
1.6013404e-05
7.2334967e-08
4.8337377e-08
1.5923022e-05
7.064772e-08
4.6803883e-08
1.5835019e-05
6.9025724e-08
4.5344272e-08
1.5749294e-05
6.7465535e-08
4.3953708e-08
1.5665753e-05
6.5963791e-08
4.262769e-08
1.5584307e-05
6.4517345e-08
4.1362149e-08
1.5504871e-05
6.3123435e-08
4.0153356e-08
1.5427365e-05
6.1779329e-08
3.8997776e-08
1.5351716e-05
6.0482542e-08
3.7892262e-08
1.5277852e-05
5.9230839e-08
3.683386e-08
1.5205705e-05
5.8021997e-08
3.5819735e-08
1.5135212e-05
5.6854011e-08
3.4847363e-08
1.5066313e-05
5.5725007e-08
3.3914345e-08
1.499895e-05
5.4633118e-08
3.3018401e-08
1.493307e-05
5.3576739e-08
3.2157458e-08
1.4868621e-05
5.2554205e-08
3.1329428e-08
1.4805554e-05
5.1563965e-08
3.0532454e-08
1.4743823e-05
5.0604476e-08
2.9764659e-08
1.4683386e-05
4.967431e-08
2.902437e-08
1.4624199e-05
4.8771812e-08
2.8309824e-08
1.4566226e-05
4.7895472e-08
2.7619535e-08
1.4509431e-05
4.7043507e-08
2.6951957e-08
1.4453778e-05
4.6214116e-08
2.6305759e-08
1.4399237e-05
4.5405427e-08
2.567987e-08
1.4345777e-05
4.4615711e-08
2.5073743e-08
1.4293367e-05
4.3844277e-08
2.4487703e-08
1.4241972e-05
4.3092878e-08
2.392375e-08
1.4191548e-05
4.2369933e-08
2.3387151e-08
1.4142019e-05
4.1699324e-08
2.2889627e-08
1.4093249e-05
4.1141631e-08
2.2456633e-08
1.4044951e-05
4.0844677e-08
2.2146557e-08
1.3996485e-05
4.1169209e-08
2.212304e-08
1.3946229e-05
4.3012305e-08
2.2985392e-08
1.389015e-05
4.854029e-08
2.5565799e-08
6.3281547e-08
5.0000841e-08
0.00010603565
2.7876425e-06
6.4750379e-06
0.00010074799
4.4145413e-06
6.5685292e-06
9.5493515e-05
4.8594028e-06
6.1741158e-06
9.0256432e-05
4.930369e-06
5.9581921e-06
8.5101366e-05
4.8311767e-06
5.6908011e-06
8.0102875e-05
4.5561761e-06
5.3445981e-06
7.5322251e-05
4.1469521e-06
4.9614853e-06
7.0803266e-05
3.6678926e-06
4.5689837e-06
6.6576264e-05
3.1701903e-06
4.1811254e-06
6.2660725e-05
2.6900109e-06
3.8075976e-06
5.9065443e-05
2.2519319e-06
3.4554566e-06
5.5788936e-05
1.8697304e-06
3.1287957e-06
5.2820978e-05
1.5477473e-06
2.8291458e-06
5.014479e-05
1.2836302e-06
2.5563139e-06
4.7739304e-05
1.07123e-06
2.3091141e-06
4.5581183e-05
9.0281505e-07
2.0858661e-06
4.3646423e-05
7.7048779e-07
1.884709e-06
4.1911533e-05
6.6697373e-07
1.7037793e-06
4.0354306e-05
5.8598197e-07
1.541295e-06
3.8954268e-05
5.2230223e-07
1.3955849e-06
3.769288e-05
4.7175608e-07
1.265091e-06
3.6553576e-05
4.3107987e-07
1.1483634e-06
3.552169e-05
3.977821e-07
1.0440533e-06
3.4584322e-05
3.6999886e-07
9.5090831e-07
3.3730181e-05
3.4635986e-07
8.677702e-07
3.2949411e-05
3.2587763e-07
7.9356876e-07
3.2233419e-05
3.0784046e-07
7.2733487e-07
3.1574711e-05
2.9172984e-07
6.6818105e-07
3.0966769e-05
2.7719266e-07
6.1530128e-07
3.0403928e-05
2.6398101e-07
5.6797019e-07
2.9881258e-05
2.5190846e-07
5.2554313e-07
2.9394455e-05
2.4082711e-07
4.8745e-07
2.8939761e-05
2.3062155e-07
4.5318326e-07
2.8513895e-05
2.2120151e-07
4.2229385e-07
2.8113985e-05
2.1249195e-07
3.9438676e-07
2.7737518e-05
2.0442799e-07
3.6911493e-07
2.7382285e-05
1.9695194e-07
3.4617383e-07
2.7046344e-05
1.9001177e-07
3.2529679e-07
2.6727982e-05
1.8355995e-07
3.0625043e-07
2.6425689e-05
1.7755273e-07
2.8883085e-07
2.6138123e-05
1.7195004e-07
2.7285987e-07
2.5864094e-05
1.6671514e-07
2.5818185e-07
2.5602546e-05
1.6181454e-07
2.4466095e-07
2.535253e-05
1.5721709e-07
2.3217769e-07
2.51132e-05
1.5289443e-07
2.206273e-07
2.4883797e-05
1.48821e-07
2.0991776e-07
2.4663634e-05
1.4497367e-07
1.9996811e-07
2.4452094e-05
1.4133186e-07
1.9070708e-07
2.4248615e-05
1.3787697e-07
1.8207152e-07
2.405269e-05
1.3459267e-07
1.7400571e-07
2.3863854e-05
1.3146459e-07
1.6645988e-07
2.3681684e-05
1.2848059e-07
1.5938924e-07
2.3505794e-05
1.256292e-07
1.5275411e-07
2.3335829e-05
1.2289869e-07
1.4651969e-07
2.3171462e-05
1.2027634e-07
1.4065459e-07
2.3012394e-05
1.1775475e-07
1.3513018e-07
2.2858345e-05
1.1532973e-07
1.2992039e-07
2.2709057e-05
1.129954e-07
1.2500171e-07
2.2564291e-05
1.107452e-07
1.203529e-07
2.2423824e-05
1.0857349e-07
1.1595457e-07
2.2287451e-05
1.0647549e-07
1.1178924e-07
2.2154978e-05
1.0444704e-07
1.0784081e-07
2.2026226e-05
1.024842e-07
1.040946e-07
2.1901025e-05
1.0058349e-07
1.0053714e-07
2.1779218e-05
9.8741534e-08
9.7156173e-08
2.1660658e-05
9.6954911e-08
9.394024e-08
2.1545205e-05
9.5221286e-08
9.087905e-08
2.1432729e-05
9.3538808e-08
8.7962827e-08
2.1323107e-05
9.1905313e-08
8.5182599e-08
2.1216222e-05
9.0318499e-08
8.2530166e-08
2.1111965e-05
8.8776379e-08
7.9997879e-08
2.1010233e-05
8.7277135e-08
7.7578624e-08
2.0910927e-05
8.5818958e-08
7.5265846e-08
2.0813956e-05
8.4400345e-08
7.3053453e-08
2.0719232e-05
8.3019708e-08
7.0935642e-08
2.0626671e-05
8.1675652e-08
6.8907218e-08
2.0536195e-05
8.0366831e-08
6.6963128e-08
2.0447729e-05
7.9091933e-08
6.5098756e-08
2.0361203e-05
7.7849861e-08
6.3309763e-08
2.0276548e-05
7.6639245e-08
6.1592025e-08
2.0193702e-05
7.5459025e-08
5.9941739e-08
2.0112602e-05
7.4307974e-08
5.8355225e-08
2.0033193e-05
7.318493e-08
5.682904e-08
1.9955419e-05
7.2088623e-08
5.5359965e-08
1.9879228e-05
7.1017618e-08
5.3944854e-08
1.9804572e-05
6.9970416e-08
5.2580728e-08
1.9731406e-05
6.8945268e-08
5.1264815e-08
1.9659685e-05
6.7940125e-08
4.9994411e-08
1.9589371e-05
6.6953037e-08
4.8767061e-08
1.9520423e-05
6.5982368e-08
4.7580577e-08
1.9452807e-05
6.5028007e-08
4.6433128e-08
1.9386482e-05
6.409412e-08
4.532375e-08
1.9321404e-05
6.3194662e-08
4.4253096e-08
1.9257511e-05
6.2366342e-08
4.3225243e-08
1.9194705e-05
6.1695175e-08
4.225314e-08
1.9132798e-05
6.1374081e-08
4.13774e-08
1.9071394e-05
6.182243e-08
4.0750678e-08
1.9009424e-05
6.3924746e-08
4.1057611e-08
1.8944661e-05
6.9304685e-08
4.3998817e-08
7.917096e-08
7.4661534e-08
0.0001054937
1.9169871e-06
6.4880406e-06
0.00010005365
3.2729596e-06
6.5816334e-06
9.4926077e-05
3.8288995e-06
6.1580776e-06
8.9946373e-05
3.9838108e-06
5.9262629e-06
8.5163276e-05
3.9595077e-06
5.6547657e-06
8.0619137e-05
3.7899368e-06
5.3103784e-06
7.6329462e-05
3.5015547e-06
4.9350725e-06
7.230016e-05
3.1412013e-06
4.5559928e-06
6.8534206e-05
2.7514802e-06
4.1846641e-06
6.5032983e-05
2.3633493e-06
3.8278852e-06
6.1795789e-05
1.9984143e-06
3.490711e-06
5.8818843e-05
1.6703759e-06
3.176301e-06
5.6094717e-05
1.3858295e-06
2.886043e-06
5.3612488e-05
1.1457945e-06
2.6200649e-06
5.1358373e-05
9.476412e-07
2.3777043e-06
4.9316593e-05
7.8676786e-07
2.1578272e-06
4.7470246e-05
6.5779546e-07
1.9590391e-06
4.5802069e-05
5.5532542e-07
1.7798252e-06
4.4295042e-05
4.7437113e-07
1.6186378e-06
4.293283e-05
4.1056668e-07
1.473948e-06
4.1700078e-05
3.6023237e-07
1.3442759e-06
4.0582591e-05
3.2035746e-07
1.2282094e-06
3.956742e-05
2.8853737e-07
1.1244154e-06
3.8642881e-05
2.6289066e-07
1.0316467e-06
3.7798527e-05
2.4196986e-07
9.4874401e-07
3.7025076e-05
2.2467704e-07
8.746517e-07
3.6314324e-05
2.1018901e-07
8.0840412e-07
3.5659057e-05
1.9788604e-07
7.4911041e-07
3.5052961e-05
1.8731582e-07
6.9597282e-07
3.4490519e-05
1.7814869e-07
6.4827379e-07
3.3966922e-05
1.7013167e-07
6.053744e-07
3.3477973e-05
1.6306728e-07
5.6670867e-07
3.3020016e-05
1.5680295e-07
5.3177541e-07
3.2589865e-05
1.5122052e-07
5.0013242e-07
3.218474e-05
1.4622559e-07
4.7139135e-07
3.1802215e-05
1.4174074e-07
4.4521234e-07
3.1440168e-05
1.3770092e-07
4.2129808e-07
3.1096739e-05
1.3405094e-07
3.9938923e-07
3.0770297e-05
1.3074291e-07
3.7925955e-07
3.0459402e-05
1.2773518e-07
3.6071197e-07
3.0162787e-05
1.2499093e-07
3.4357479e-07
2.9879325e-05
1.2247786e-07
3.2769852e-07
2.960802e-05
1.2016733e-07
3.1295272e-07
2.934798e-05
1.1803381e-07
2.9922354e-07
2.9098408e-05
1.1605466e-07
2.8641138e-07
2.885859e-05
1.1420986e-07
2.7442904e-07
2.8627882e-05
1.1248194e-07
2.6319997e-07
2.8405701e-05
1.108556e-07
2.5265684e-07
2.819152e-05
1.0931758e-07
2.4274021e-07
2.7984859e-05
1.0785652e-07
2.3339754e-07
2.7785279e-05
1.0646279e-07
2.2458211e-07
2.7592378e-05
1.0512871e-07
2.1625216e-07
2.740579e-05
1.0384737e-07
2.0837039e-07
2.7225174e-05
1.0261119e-07
2.0090361e-07
2.705022e-05
1.0140746e-07
1.9382259e-07
2.6880641e-05
1.0023381e-07
1.8710042e-07
2.6716166e-05
9.9092334e-08
1.8071221e-07
2.6556546e-05
9.7980007e-08
1.7463558e-07
2.6401548e-05
9.689253e-08
1.6885016e-07
2.6250957e-05
9.582711e-08
1.6333741e-07
2.610457e-05
9.4781705e-08
1.5808045e-07
2.5962199e-05
9.3754737e-08
1.5306363e-07
2.5823666e-05
9.2744864e-08
1.482726e-07
2.5688804e-05
9.1750997e-08
1.4369413e-07
2.5557458e-05
9.0771818e-08
1.3931598e-07
2.5429481e-05
8.9805181e-08
1.3512691e-07
2.5304734e-05
8.8851432e-08
1.3111644e-07
2.5183087e-05
8.7911196e-08
1.2727467e-07
2.5064416e-05
8.6983891e-08
1.2359243e-07
2.4948604e-05
8.606889e-08
1.2006122e-07
2.4835542e-05
8.5165769e-08
1.1667303e-07
2.4725124e-05
8.4274317e-08
1.1342046e-07
2.4617252e-05
8.3394287e-08
1.1029654e-07
2.4511832e-05
8.2525451e-08
1.0729476e-07
2.4408775e-05
8.1667728e-08
1.0440899e-07
2.4307997e-05
8.082096e-08
1.0163341e-07
2.4209416e-05
7.9985011e-08
9.8962657e-08
2.4112956e-05
7.9159753e-08
9.639155e-08
2.4018546e-05
7.8345049e-08
9.3915269e-08
2.3926115e-05
7.7540702e-08
9.1529305e-08
2.3835598e-05
7.6746583e-08
8.9229259e-08
2.3746933e-05
7.5962355e-08
8.7011038e-08
2.366006e-05
7.5187635e-08
8.4870717e-08
2.3574922e-05
7.4421958e-08
8.2804533e-08
2.3491466e-05
7.3664621e-08
8.0808904e-08
2.3409641e-05
7.2914628e-08
7.8880361e-08
2.33294e-05
7.2170692e-08
7.7015508e-08
2.3250698e-05
7.1431316e-08
7.5211024e-08
2.3173493e-05
7.0694888e-08
7.346364e-08
2.3097745e-05
6.9960251e-08
7.177008e-08
2.3023418e-05
6.9227997e-08
7.0127016e-08
2.2950477e-05
6.8503507e-08
6.8531209e-08
2.2878889e-05
6.7802892e-08
6.6979723e-08
2.2808619e-05
6.7165075e-08
6.5471577e-08
2.2739625e-05
6.6675271e-08
6.4013372e-08
2.267185e-05
6.6507085e-08
6.2642302e-08
2.2605149e-05
6.6990744e-08
6.1532375e-08
2.2538888e-05
6.8686056e-08
6.1499905e-08
2.2471121e-05
7.2226977e-08
6.4845126e-08
7.6722814e-08
9.8461323e-08
0.0001051979
1.3340885e-06
6.4961221e-06
9.9496561e-05
2.3731022e-06
6.6011947e-06
9.4262459e-05
2.9019223e-06
6.1610798e-06
8.9251186e-05
3.0856642e-06
5.9094196e-06
8.4493498e-05
3.0947347e-06
5.6224614e-06
8.0033635e-05
2.9846656e-06
5.265134e-06
7.5876907e-05
2.7790155e-06
4.8792667e-06
7.2014635e-05
2.5106843e-06
4.4927895e-06
6.8436293e-05
2.2128728e-06
4.1169489e-06
6.5131387e-05
1.9107259e-06
3.7575291e-06
6.208941e-05
1.6217321e-06
3.4186596e-06
5.9299432e-05
1.3573877e-06
3.1029661e-06
5.6749589e-05
1.1240344e-06
2.8116387e-06
5.4426788e-05
9.2377947e-07
2.5448158e-06
5.2316754e-05
7.55728e-07
2.3019466e-06
5.0404313e-05
6.1717857e-07
2.0820302e-06
4.8673788e-05
5.0454349e-07
1.8837772e-06
4.7109414e-05
4.1397181e-07
1.7057274e-06
4.5695713e-05
3.4173647e-07
1.5463363e-06
4.4417792e-05
2.8445145e-07
1.4040359e-06
4.3261575e-05
2.3917114e-07
1.2772781e-06
4.2213952e-05
2.0341506e-07
1.1645652e-06
4.1262871e-05
1.7514744e-07
1.0644719e-06
4.039737e-05
1.5273235e-07
9.7565899e-07
3.9607583e-05
1.3487529e-07
8.9688145e-07
3.8884688e-05
1.2055567e-07
8.270164e-07
3.8220848e-05
1.090109e-07
7.6501856e-07
3.7609155e-05
9.9633809e-08
7.0994488e-07
3.7043542e-05
9.1977439e-08
6.6095087e-07
3.6518702e-05
8.5705792e-08
6.1728287e-07
3.6030009e-05
8.055239e-08
5.7827305e-07
3.5573433e-05
7.630829e-08
5.433341e-07
3.5145475e-05
7.281126e-08
5.119503e-07
3.4743091e-05
6.9934104e-08
4.8367023e-07
3.4363641e-05
6.7575433e-08
4.5810067e-07
3.4004828e-05
6.5652854e-08
4.3489997e-07
3.3664659e-05
6.4098582e-08
4.137721e-07
3.3341393e-05
6.2855873e-08
3.9446095e-07
3.3033513e-05
6.1877007e-08
3.7674526e-07
3.2739693e-05
6.1121095e-08
3.6043425e-07
3.2458768e-05
6.0553088e-08
3.4536331e-07
3.2189712e-05
6.0142677e-08
3.3139055e-07
3.1931622e-05
5.9863672e-08
3.1839376e-07
3.1683696e-05
5.9693151e-08
3.0626736e-07
3.1445219e-05
5.9611245e-08
2.9492014e-07
3.1215555e-05
5.960066e-08
2.8427317e-07
3.0994132e-05
5.9646543e-08
2.7425805e-07
3.0780436e-05
5.9736165e-08
2.648154e-07
3.0574002e-05
5.985867e-08
2.5589335e-07
3.0374407e-05
6.0004932e-08
2.4744659e-07
3.0181267e-05
6.0167644e-08
2.3943548e-07
2.9994229e-05
6.0341263e-08
2.3182487e-07
2.9812971e-05
6.052181e-08
2.2458375e-07
2.9637193e-05
6.0704471e-08
2.1768455e-07
2.9466629e-05
6.0867291e-08
2.1110457e-07
2.9301024e-05
6.1017004e-08
2.0482181e-07
2.914014e-05
6.1160864e-08
1.9881567e-07
2.8983756e-05
6.1294945e-08
1.9306838e-07
2.8831669e-05
6.1415467e-08
1.875639e-07
2.8683688e-05
6.1520971e-08
1.8228764e-07
2.8539633e-05
6.1610579e-08
1.7722636e-07
2.8399336e-05
6.1683812e-08
1.7236784e-07
2.8262639e-05
6.1740518e-08
1.6770088e-07
2.8129394e-05
6.1780707e-08
1.6321521e-07
2.7999461e-05
6.180386e-08
1.589012e-07
2.7872709e-05
6.1807373e-08
1.5475035e-07
2.7749012e-05
6.1793572e-08
1.5075441e-07
2.7628253e-05
6.1764808e-08
1.4690558e-07
2.7510319e-05
6.1720994e-08
1.4319663e-07
2.7395105e-05
6.1662111e-08
1.3962084e-07
2.728251e-05
6.1588607e-08
1.3617199e-07
2.7172439e-05
6.1501063e-08
1.3284421e-07
2.7064802e-05
6.1399957e-08
1.2963191e-07
2.6959511e-05
6.1285915e-08
1.2652991e-07
2.6856486e-05
6.1159507e-08
1.2353324e-07
2.6755649e-05
6.1021327e-08
1.2063729e-07
2.6656924e-05
6.0871876e-08
1.1783767e-07
2.6560242e-05
6.0711715e-08
1.1513013e-07
2.6465535e-05
6.0541388e-08
1.1251075e-07
2.6372738e-05
6.0361356e-08
1.0997579e-07
2.6281791e-05
6.0171959e-08
1.0752155e-07
2.6192636e-05
5.9973542e-08
1.051447e-07
2.6105215e-05
5.9766327e-08
1.0284183e-07
2.6019477e-05
5.9550238e-08
1.0060972e-07
2.5935371e-05
5.932515e-08
9.8445285e-08
2.585285e-05
5.909052e-08
9.6345378e-08
2.5771868e-05
5.8845521e-08
9.4306948e-08
2.5692384e-05
5.8589006e-08
9.2326739e-08
2.5614357e-05
5.8319816e-08
9.0401436e-08
2.5537753e-05
5.8037102e-08
8.8527326e-08
2.5462539e-05
5.7741651e-08
8.6700205e-08
2.5388689e-05
5.7438408e-08
8.4915161e-08
2.5316184e-05
5.7141435e-08
8.3166643e-08
2.5245017e-05
5.6882585e-08
8.1449612e-08
2.51752e-05
5.6726034e-08
7.9765823e-08
2.510677e-05
5.6787923e-08
7.8149188e-08
2.5039729e-05
5.7251599e-08
7.6780969e-08
2.4973573e-05
5.8330944e-08
7.6510194e-08
2.4906079e-05
5.9989464e-08
7.9732171e-08
6.0714993e-08
1.1287823e-07
0.00010503672
9.0789372e-07
6.5005614e-06
9.9140653e-05
1.6524914e-06
6.6166802e-06
9.3788329e-05
2.0825242e-06
6.1717217e-06
8.8708526e-05
2.2549373e-06
5.91053e-06
8.3909682e-05
2.278404e-06
5.6151748e-06
7.9437109e-05
2.2074821e-06
5.2497564e-06
7.5296201e-05
2.0645348e-06
4.8553893e-06
7.1474034e-05
1.8722542e-06
4.4605969e-06
6.7955013e-05
1.6547667e-06
4.0771269e-06
6.4723621e-05
1.4313505e-06
3.7107669e-06
6.1764423e-05
1.2154297e-06
3.3655007e-06
5.9062056e-05
1.015864e-06
3.0438911e-06
5.6601108e-05
8.3782743e-07
2.7471548e-06
5.4365944e-05
6.834465e-07
2.475497e-06
5.2340648e-05
5.5258529e-07
2.2284383e-06
5.0509125e-05
4.436655e-07
2.0050361e-06
4.8855299e-05
3.543346e-07
1.8040352e-06
4.7363353e-05
2.8193592e-07
1.6239821e-06
4.6017963e-05
2.2381347e-07
1.4633127e-06
4.4804502e-05
1.7749383e-07
1.3204181e-06
4.3709199e-05
1.4078091e-07
1.1936935e-06
4.2719248e-05
1.1179155e-07
1.081575e-06
4.1822875e-05
8.8954552e-08
9.8256582e-07
4.1009364e-05
7.0988017e-08
8.9525474e-07
4.0269054e-05
5.686181e-08
8.1832381e-07
3.9593306e-05
4.5719122e-08
7.5058474e-07
3.8974405e-05
3.697784e-08
6.9093436e-07
3.8405585e-05
3.0067364e-08
6.3838633e-07
3.7880869e-05
2.4650826e-08
5.9204242e-07
3.7395029e-05
2.043998e-08
5.5110606e-07
3.6943514e-05
1.7190248e-08
5.1487714e-07
3.6522366e-05
1.4716731e-08
4.8273954e-07
3.6128148e-05
1.2874789e-08
4.541539e-07
3.5757883e-05
1.1549899e-08
4.2864943e-07
3.5408991e-05
1.0650778e-08
4.0581707e-07
3.5079238e-05
1.0103625e-08
3.8530229e-07
3.4766689e-05
9.8482648e-09
3.6679877e-07
3.4469668e-05
9.8350978e-09
3.5004232e-07
3.4186716e-05
1.0022912e-08
3.3480554e-07
3.3916567e-05
1.037702e-08
3.2089286e-07
3.3658116e-05
1.0868073e-08
3.0813661e-07
3.3410395e-05
1.1471002e-08
2.9639285e-07
3.3172556e-05
1.2164256e-08
2.8553827e-07
3.2943853e-05
1.2929346e-08
2.754672e-07
3.2723625e-05
1.3750209e-08
2.6608895e-07
3.2511286e-05
1.4613116e-08
2.5732572e-07
3.2306316e-05
1.5506248e-08
2.4911066e-07
3.2108246e-05
1.6419618e-08
2.4138621e-07
3.1916658e-05
1.734463e-08
2.3410271e-07
3.1731171e-05
1.8274353e-08
2.2721713e-07
3.1551444e-05
1.9203175e-08
2.2069216e-07
3.1377162e-05
2.012773e-08
2.144951e-07
3.1208038e-05
2.1048632e-08
2.085968e-07
3.10438e-05
2.1972796e-08
2.0297055e-07
3.0884232e-05
2.2827851e-08
1.9760739e-07
3.0729103e-05
2.3663017e-08
1.924823e-07
3.05782e-05
2.4490034e-08
1.8757381e-07
3.0431331e-05
2.5296289e-08
1.8286763e-07
3.0288318e-05
2.6077995e-08
1.7835077e-07
3.0148994e-05
2.6834268e-08
1.7401106e-07
3.0013202e-05
2.7564687e-08
1.6983756e-07
2.9880797e-05
2.8268961e-08
1.6582027e-07
2.975164e-05
2.8947428e-08
1.6195014e-07
2.9625601e-05
2.9600765e-08
1.5821898e-07
2.9502557e-05
3.0228547e-08
1.5461919e-07
2.9382396e-05
3.0823603e-08
1.5114466e-07
2.9265007e-05
3.1393124e-08
1.4778876e-07
2.9150287e-05
3.1939588e-08
1.4454538e-07
2.9038137e-05
3.2461868e-08
1.41409e-07
2.8928465e-05
3.2960063e-08
1.3837459e-07
2.8821181e-05
3.3434722e-08
1.3543751e-07
2.8716203e-05
3.3886369e-08
1.3259328e-07
2.8613449e-05
3.4315558e-08
1.2983787e-07
2.8512845e-05
3.4722886e-08
1.2716734e-07
2.8414317e-05
3.5108978e-08
1.2457814e-07
2.8317797e-05
3.5474459e-08
1.2206678e-07
2.8223219e-05
3.5819895e-08
1.1963008e-07
2.813052e-05
3.6145909e-08
1.1726493e-07
2.803964e-05
3.645308e-08
1.1496842e-07
2.7950522e-05
3.6741908e-08
1.1273775e-07
2.7863111e-05
3.7012832e-08
1.1057027e-07
2.7777355e-05
3.7266273e-08
1.0846346e-07
2.7693204e-05
3.7502468e-08
1.0641474e-07
2.7610611e-05
3.7721613e-08
1.0442175e-07
2.752953e-05
3.7923561e-08
1.0248202e-07
2.744992e-05
3.8107998e-08
1.0059307e-07
2.7371738e-05
3.8274298e-08
9.8752301e-08
2.7294949e-05
3.8421557e-08
9.695688e-08
2.7219516e-05
3.8548717e-08
9.520362e-08
2.714541e-05
3.8655096e-08
9.3488589e-08
2.7072603e-05
3.8741133e-08
9.1806937e-08
2.7001079e-05
3.8810271e-08
9.0152305e-08
2.6930832e-05
3.8872126e-08
8.8516579e-08
2.6861877e-05
3.894739e-08
8.6890528e-08
2.679426e-05
3.9073526e-08
8.5269189e-08
2.6728065e-05
3.9306943e-08
8.3675936e-08
2.6663337e-05
3.9708345e-08
8.2271187e-08
2.659956e-05
4.0271971e-08
8.1836169e-08
2.6534295e-05
4.0698005e-08
8.4555699e-08
3.9620842e-08
1.150713e-07
0.00010494757
5.6811082e-07
6.5033076e-06
9.8925416e-05
1.0462983e-06
6.6283516e-06
9.3480449e-05
1.3439844e-06
6.1835065e-06
8.8341777e-05
1.4751324e-06
5.9184763e-06
8.3502084e-05
1.4993911e-06
5.6187065e-06
7.9004057e-05
1.4572411e-06
5.2482679e-06
7.4853978e-05
1.3667382e-06
4.8478757e-06
7.1037378e-05
1.2423973e-06
4.4464569e-06
6.7536063e-05
1.0997693e-06
4.0563127e-06
6.4331998e-05
9.519236e-07
3.6834909e-06
6.1407318e-05
8.0805756e-07
3.3320524e-06
5.8744339e-05
6.7422203e-07
3.0046209e-06
5.6325632e-05
5.5404399e-07
2.7024907e-06
5.4133973e-05
4.491675e-07
2.4259383e-06
5.2152298e-05
3.5972403e-07
2.174536e-06
5.0363747e-05
2.8484514e-07
1.9473717e-06
4.875178e-05
2.2310008e-07
1.7432015e-06
4.7300339e-05
1.7281168e-07
1.5605647e-06
4.5994012e-05
1.3226574e-07
1.3978748e-06
4.4818177e-05
9.9840041e-08
1.2534891e-06
4.3759121e-05
7.4075602e-08
1.1257614e-06
4.2804123e-05
5.3707636e-08
1.0130814e-06
4.1941503e-05
3.7671229e-08
9.1390373e-07
4.1160627e-05
2.5096459e-08
8.2676733e-07
4.0451891e-05
1.5294177e-08
7.5030388e-07
3.980679e-05
7.5281877e-09
6.8329174e-07
3.9217543e-05
1.6727478e-09
6.2455203e-07
3.8677513e-05
-3.0331021e-09
5.7313082e-07
3.8180739e-05
-6.6486653e-09
5.2807354e-07
3.7722004e-05
-9.3594906e-09
4.885345e-07
3.7296777e-05
-1.1371805e-08
4.5378926e-07
3.6901112e-05
-1.2818252e-08
4.2319912e-07
3.6531588e-05
-1.3805318e-08
3.9620481e-07
3.6185236e-05
-1.4417514e-08
3.7231878e-07
3.5859491e-05
-1.4721922e-08
3.5111776e-07
3.5552132e-05
-1.4772656e-08
3.3223578e-07
3.5261237e-05
-1.4613926e-08
3.1535727e-07
3.4985143e-05
-1.4282183e-08
3.0021089e-07
3.472241e-05
-1.3807678e-08
2.8656377e-07
3.4471787e-05
-1.3215876e-08
2.7421631e-07
3.4232185e-05
-1.2528146e-08
2.6299772e-07
3.4002657e-05
-1.1762789e-08
2.5276175e-07
3.3782373e-05
-1.0935229e-08
2.4338337e-07
3.3570606e-05
-1.0058747e-08
2.3475557e-07
3.3366714e-05
-9.1447373e-09
2.2678671e-07
3.3170132e-05
-8.2028011e-09
2.1939831e-07
3.2980356e-05
-7.2412218e-09
2.12523e-07
3.279694e-05
-6.2668866e-09
2.0610281e-07
3.2619482e-05
-5.2855354e-09
2.0008785e-07
3.2447623e-05
-4.301815e-09
1.9443478e-07
3.228104e-05
-3.319029e-09
1.8910587e-07
3.2119438e-05
-2.3383231e-09
1.8406734e-07
3.1962554e-05
-1.3530467e-09
1.792865e-07
3.1810075e-05
-2.7632975e-10
1.7472764e-07
3.1661878e-05
5.8583479e-10
1.7043905e-07
3.1517732e-05
1.4356099e-09
1.6637294e-07
3.1377429e-05
2.3038261e-09
1.6248961e-07
3.1240792e-05
3.158645e-09
1.5877486e-07
3.1107656e-05
3.9969843e-09
1.5521722e-07
3.0977867e-05
4.8171555e-09
1.5180548e-07
3.0851284e-05
5.6179657e-09
1.485297e-07
3.0727774e-05
6.3990386e-09
1.453808e-07
3.0607209e-05
7.1609405e-09
1.4235053e-07
3.0489473e-05
7.9059287e-09
1.3943122e-07
3.037445e-05
8.6357466e-09
1.3661577e-07
3.0262049e-05
9.3206219e-09
1.3390395e-07
3.0152163e-05
9.9937939e-09
1.3128564e-07
3.0044697e-05
1.0650364e-08
1.2875514e-07
2.9939564e-05
1.1286747e-08
1.2630829e-07
2.983668e-05
1.1903187e-08
1.2394088e-07
2.9735965e-05
1.2500153e-08
1.2164885e-07
2.9637345e-05
1.3077902e-08
1.1942844e-07
2.9540748e-05
1.3636753e-08
1.1727618e-07
2.9446105e-05
1.4177023e-08
1.1518882e-07
2.9353352e-05
1.4699175e-08
1.1316336e-07
2.9262425e-05
1.5203536e-08
1.1119698e-07
2.9173268e-05
1.5690509e-08
1.092871e-07
2.9085822e-05
1.616038e-08
1.0743109e-07
2.9000035e-05
1.6613567e-08
1.0562662e-07
2.8915855e-05
1.7050389e-08
1.0387154e-07
2.8833233e-05
1.7471114e-08
1.0216358e-07
2.8752123e-05
1.7875965e-08
1.0050081e-07
2.8672479e-05
1.8265103e-08
9.8881115e-08
2.8594259e-05
1.8638535e-08
9.7302476e-08
2.8517424e-05
1.8996218e-08
9.5762964e-08
2.8441934e-05
1.933778e-08
9.4260391e-08
2.8367753e-05
1.9662808e-08
9.2792347e-08
2.8294848e-05
1.997048e-08
9.1356264e-08
2.8223187e-05
2.0260018e-08
8.9948851e-08
2.8152746e-05
2.0530692e-08
8.8565891e-08
2.8083503e-05
2.0782588e-08
8.7201783e-08
2.8015447e-05
2.1017516e-08
8.5848687e-08
2.7948582e-05
2.1240687e-08
8.4495845e-08
2.7882937e-05
2.1462709e-08
8.3129522e-08
2.7818574e-05
2.1699971e-08
8.1736537e-08
2.7755588e-05
2.1969278e-08
8.0324369e-08
2.7694014e-05
2.2266148e-08
7.9016084e-08
2.7633299e-05
2.2506266e-08
7.8480648e-08
2.7571004e-05
2.2393418e-08
8.0599439e-08
2.0993098e-08
1.0779946e-07
0.00010489986
2.7443376e-07
6.5049155e-06
9.8802772e-05
5.0716634e-07
6.6362236e-06
9.329591e-05
6.5854977e-07
6.1922972e-06
8.8116302e-05
7.2902547e-07
5.9257148e-06
8.3248198e-05