/*--------------------------------*- C++ -*----------------------------------*\
  =========                 |
  \\      /  F ield         | OpenFOAM: The Open Source CFD Toolbox
   \\    /   O peration     | Website:  https://openfoam.org
    \\  /    A nd           | Version:  7
     \\/     M anipulation  |
\*---------------------------------------------------------------------------*/
FoamFile
{
    version     2.0;
    format      ascii;
    class       volVectorField;
    location    "3300/water";
    object      U;
}
// * * * * * * * * * * * * * * * * * * * * * * * * * * * * * * * * * * * * * //

dimensions      [0 1 -1 0 0 0 0];

internalField   nonuniform List<vector> 
54000
(
(0.0090020934 0.00020305973 0.00020444027)
(0.0083186447 0.00023622738 0.00023904411)
(0.0073695241 0.00021363852 0.00021763527)
(0.0063566114 0.00018488016 0.00018965819)
(0.0054486673 0.00015530836 0.00016048633)
(0.0046741594 0.00012529952 0.00013052937)
(0.0040193038 9.7052611e-05 0.00010203017)
(0.0034740067 7.2578999e-05 7.7073287e-05)
(0.0030302461 5.2876127e-05 5.6738329e-05)
(0.0026757323 3.8068151e-05 4.1216512e-05)
(0.0023947254 2.7637703e-05 3.0037141e-05)
(0.0021713898 2.0689034e-05 2.2336509e-05)
(0.0019919695 1.623616e-05 1.7152703e-05)
(0.0018455015 1.3416236e-05 1.3643172e-05)
(0.0017237326 1.1582489e-05 1.1179121e-05)
(0.0016206928 1.0304891e-05 9.3455803e-06)
(0.0015321593 9.3257905e-06 7.8957164e-06)
(0.0014551546 8.5052952e-06 6.6953108e-06)
(0.0013875459 7.7746339e-06 5.6760579e-06)
(0.0013277612 7.1034287e-06 4.8034858e-06)
(0.001274601 6.4798501e-06 4.058157e-06)
(0.0012271179 5.8999461e-06 3.4261589e-06)
(0.0011845424 5.3625308e-06 2.8950714e-06)
(0.001146235 4.8670216e-06 2.4526291e-06)
(0.0011116558 4.4125992e-06 2.0869768e-06)
(0.0010803434 3.9980126e-06 1.7867455e-06)
(0.0010519002 3.6214597e-06 1.541612e-06)
(0.0010259819 3.2805926e-06 1.3421851e-06)
(0.001002289 2.9733951e-06 1.1797305e-06)
(0.00098056199 2.6979493e-06 1.0463203e-06)
(0.00096057572 2.4519206e-06 9.3658933e-07)
(0.00094213242 2.2325659e-06 8.4693314e-07)
(0.00092505792 2.037387e-06 7.7316642e-07)
(0.00090920047 1.8640897e-06 7.118424e-07)
(0.00089442818 1.7104625e-06 6.6046716e-07)
(0.0008806259 1.5743818e-06 6.1707374e-07)
(0.00086769295 1.4538611e-06 5.8005402e-07)
(0.00085554128 1.3470708e-06 5.481147e-07)
(0.00084409387 1.252349e-06 5.2023875e-07)
(0.00083328322 1.168199e-06 4.956284e-07)
(0.00082305015 1.0932613e-06 4.7365348e-07)
(0.00081334267 1.0262289e-06 4.5378347e-07)
(0.00080411486 9.658585e-07 4.355451e-07)
(0.00079532615 9.1131008e-07 4.18651e-07)
(0.0007869407 8.619165e-07 4.0290709e-07)
(0.00077892675 8.1708303e-07 3.8816851e-07)
(0.00077125603 7.7627664e-07 3.7432085e-07)
(0.0007639033 7.3902601e-07 3.6127683e-07)
(0.00075684598 7.0491451e-07 3.4896399e-07)
(0.00075006373 6.7357523e-07 3.373316e-07)
(0.00074353822 6.4469438e-07 3.2633743e-07)
(0.00073725294 6.1802583e-07 3.1581828e-07)
(0.00073119314 5.9334715e-07 3.0574344e-07)
(0.00072534528 5.7041907e-07 2.9621113e-07)
(0.00071969687 5.490257e-07 2.8716691e-07)
(0.00071423653 5.2901521e-07 2.7854338e-07)
(0.00070895386 5.1027376e-07 2.7031195e-07)
(0.00070383928 4.9268723e-07 2.6244851e-07)
(0.00069888397 4.7614347e-07 2.5493286e-07)
(0.00069407976 4.6054952e-07 2.4774388e-07)
(0.00068941911 4.4582063e-07 2.4086436e-07)
(0.00068489502 4.3188427e-07 2.3427692e-07)
(0.00068050098 4.1867934e-07 2.2796485e-07)
(0.00067623091 4.0614629e-07 2.2191196e-07)
(0.00067207915 3.9423465e-07 2.161057e-07)
(0.00066804042 3.8289693e-07 2.1053152e-07)
(0.00066410976 3.7209483e-07 2.0517704e-07)
(0.00066028251 3.6179448e-07 2.0003292e-07)
(0.0006565543 3.5196308e-07 1.9508238e-07)
(0.00065292099 3.4257029e-07 1.9031773e-07)
(0.00064937872 3.3358621e-07 1.857282e-07)
(0.00064592384 3.2498776e-07 1.8130581e-07)
(0.00064255289 3.1675196e-07 1.7704074e-07)
(0.00063926261 3.0885628e-07 1.729252e-07)
(0.00063604992 3.0128275e-07 1.6895108e-07)
(0.00063291192 2.9401342e-07 1.6511157e-07)
(0.00062984583 2.8703054e-07 1.6139749e-07)
(0.00062684904 2.8032157e-07 1.5780327e-07)
(0.00062391907 2.7387098e-07 1.5432053e-07)
(0.00062105358 2.6766562e-07 1.5094221e-07)
(0.00061825035 2.6169427e-07 1.4766127e-07)
(0.00061550727 2.5594576e-07 1.4446936e-07)
(0.00061282235 2.5040699e-07 1.4135974e-07)
(0.00061019373 2.4506884e-07 1.3832502e-07)
(0.00060761965 2.3991947e-07 1.3535603e-07)
(0.00060509846 2.3494627e-07 1.3244853e-07)
(0.00060262863 2.3013483e-07 1.2959807e-07)
(0.00060020873 2.2546984e-07 1.2680364e-07)
(0.00059783744 2.2093245e-07 1.2407467e-07)
(0.00059551348 2.164993e-07 1.2143333e-07)
(0.00059323555 2.1214904e-07 1.1892908e-07)
(0.00059100214 2.0787164e-07 1.1666223e-07)
(0.00058881114 2.0369035e-07 1.1483048e-07)
(0.00058665898 1.9973112e-07 1.1382035e-07)
(0.0005845387 1.9638407e-07 1.1441072e-07)
(0.00058243502 1.9487253e-07 1.1837357e-07)
(0.00058031396 1.9977503e-07 1.3094393e-07)
(0.0005781161 2.2258453e-07 1.6397596e-07)
(0.00057566369 1.9706883e-07 1.5080595e-07)
(0.00056906201 7.8896407e-07 7.5322584e-07)
(0.0095316863 0.0003313754 0.00022336697)
(0.0092716504 0.00041105942 0.00027052342)
(0.0087756651 0.00040317187 0.00026060063)
(0.0081527518 0.00038218754 0.00024252081)
(0.0075302151 0.00035309574 0.00022101124)
(0.0069425889 0.00031541062 0.00019648834)
(0.006391209 0.00027309198 0.00017102969)
(0.0058791845 0.00023030694 0.00014652546)
(0.0054120202 0.00019001855 0.00012410997)
(0.0049926512 0.00015423459 0.00010436627)
(0.004620592 0.00012408347 8.7479017e-05)
(0.0042931332 9.9809403e-05 7.3327494e-05)
(0.0040063965 8.0956423e-05 6.1601504e-05)
(0.0037559538 6.667221e-05 5.1918795e-05)
(0.0035372541 5.5985801e-05 4.3907444e-05)
(0.003345947 4.7992056e-05 3.7246645e-05)
(0.0031780884 4.194171e-05 3.1677529e-05)
(0.0030302311 3.7262445e-05 2.6997921e-05)
(0.0028994324 3.3540996e-05 2.3051138e-05)
(0.0027832152 3.0490245e-05 1.9714593e-05)
(0.0026795075 2.7915736e-05 1.6890543e-05)
(0.0025865783 2.5687842e-05 1.4499382e-05)
(0.002502978 2.3720893e-05 1.2475016e-05)
(0.0024274871 2.1958431e-05 1.0761726e-05)
(0.0023590736 2.0362993e-05 9.3122335e-06)
(0.0022968589 1.8909453e-05 8.0861293e-06)
(0.0022400906 1.7580767e-05 7.0489619e-06)
(0.0021881216 1.6364897e-05 6.1714977e-06)
(0.0021403932 1.5251963e-05 5.4283129e-06)
(0.0020964214 1.4233849e-05 4.7973503e-06)
(0.0020557868 1.330304e-05 4.2604819e-06)
(0.0020181236 1.2451985e-05 3.8027039e-06)
(0.0019831119 1.1673908e-05 3.4109605e-06)
(0.0019504718 1.0962755e-05 3.0744203e-06)
(0.0019199589 1.0312854e-05 2.7842611e-06)
(0.0018913593 9.7188325e-06 2.5331798e-06)
(0.0018644851 9.1756448e-06 2.3150739e-06)
(0.0018391716 8.6785722e-06 2.1248313e-06)
(0.0018152735 8.2232415e-06 1.9581841e-06)
(0.0017926629 7.8056202e-06 1.8115683e-06)
(0.0017712268 7.4219968e-06 1.6820119e-06)
(0.001750865 7.0689371e-06 1.5670713e-06)
(0.0017314886 6.7432686e-06 1.4647442e-06)
(0.0017130186 6.4422715e-06 1.3732758e-06)
(0.0016953848 6.1635565e-06 1.2911596e-06)
(0.0016785241 5.9049777e-06 1.2171194e-06)
(0.00166238 5.66461e-06 1.150084e-06)
(0.0016469019 5.4407244e-06 1.0891492e-06)
(0.001632044 5.2317769e-06 1.0335531e-06)
(0.0016177649 5.0363843e-06 9.8265445e-07)
(0.0016040271 4.8533225e-06 9.3589389e-07)
(0.0015907965 4.6815627e-06 8.9273658e-07)
(0.0015780424 4.5201564e-06 8.5278669e-07)
(0.0015657364 4.368153e-06 8.1576951e-07)
(0.0015538526 4.2246834e-06 7.813843e-07)
(0.0015423672 4.0890603e-06 7.4934452e-07)
(0.0015312583 3.9607287e-06 7.1941189e-07)
(0.0015205058 3.839152e-06 6.9138725e-07)
(0.0015100909 3.7238114e-06 6.6509429e-07)
(0.0014999963 3.6142426e-06 6.4037968e-07)
(0.0014902061 3.5100297e-06 6.1710875e-07)
(0.0014807053 3.4107981e-06 5.9516032e-07)
(0.00147148 3.3162119e-06 5.7442796e-07)
(0.0014625175 3.2259592e-06 5.5481485e-07)
(0.0014538055 3.1397545e-06 5.3623565e-07)
(0.0014453328 3.0573342e-06 5.1861314e-07)
(0.0014370889 2.9784705e-06 5.0187901e-07)
(0.0014290637 2.9029585e-06 4.8596822e-07)
(0.001421248 2.8306034e-06 4.7082392e-07)
(0.001413633 2.7612196e-06 4.5639252e-07)
(0.0014062104 2.694633e-06 4.4262772e-07)
(0.0013989723 2.6306911e-06 4.2948716e-07)
(0.0013919116 2.5692466e-06 4.1692961e-07)
(0.0013850212 2.510163e-06 4.0492012e-07)
(0.0013782945 2.4533187e-06 3.9342517e-07)
(0.0013717253 2.3985954e-06 3.8241154e-07)
(0.0013653078 2.345884e-06 3.7185152e-07)
(0.0013590364 2.2950865e-06 3.6171766e-07)
(0.0013529058 2.2461045e-06 3.5198362e-07)
(0.001346911 2.1988511e-06 3.4262665e-07)
(0.0013410472 2.1532419e-06 3.3362084e-07)
(0.0013353099 2.1091971e-06 3.2494582e-07)
(0.001329695 2.0666366e-06 3.1657824e-07)
(0.0013241983 2.0254887e-06 3.0850003e-07)
(0.001318816 1.9856731e-06 3.0068874e-07)
(0.0013135446 1.9471142e-06 2.9312945e-07)
(0.0013083808 1.9097266e-06 2.8580444e-07)
(0.0013033213 1.8734243e-06 2.7870196e-07)
(0.0012983632 1.8381165e-06 2.7181583e-07)
(0.0012935038 1.8037152e-06 2.6515346e-07)
(0.0012887402 1.7701707e-06 2.5874281e-07)
(0.0012840698 1.7375334e-06 2.5265022e-07)
(0.0012794889 1.7061221e-06 2.4701418e-07)
(0.0012749925 1.6769099e-06 2.4211322e-07)
(0.001270572 1.6524672e-06 2.3851879e-07)
(0.0012662098 1.6393338e-06 2.3765997e-07)
(0.0012618709 1.6545776e-06 2.4458233e-07)
(0.0012574959 1.7463714e-06 2.7712457e-07)
(0.0012529717 2.0376719e-06 2.6526423e-07)
(0.0012433358 2.9514819e-06 1.3525327e-06)
(0.0095221617 0.00021179965 0.00022180582)
(0.009269783 0.00029872516 0.00026628967)
(0.0088657772 0.00031669844 0.00025526743)
(0.0083755729 0.000317438 0.00023864265)
(0.0078888426 0.00030841043 0.00021987851)
(0.0074276349 0.00028848207 0.00019850458)
(0.006988258 0.00026048391 0.00017617916)
(0.0065698164 0.00022855168 0.00015444521)
(0.0061756011 0.00019596771 0.00013413534)
(0.0058087146 0.00016504408 0.00011567593)
(0.0054706295 0.00013728621 9.9270838e-05)
(0.0051615551 0.00011345265 8.494783e-05)
(0.0048808654 9.3684506e-05 7.2600738e-05)
(0.0046272998 7.7712987e-05 6.2044901e-05)
(0.0043991196 6.5057025e-05 5.3064542e-05)
(0.0041942886 5.5163888e-05 4.544363e-05)
(0.0040106431 4.7493347e-05 3.8982753e-05)
(0.0038460219 4.1561377e-05 3.3506381e-05)
(0.0036983537 3.6958193e-05 2.8864074e-05)
(0.0035657105 3.3351175e-05 2.4928487e-05)
(0.0034463343 3.0479504e-05 2.1592134e-05)
(0.003338646 2.8144769e-05 1.8764099e-05)
(0.003241243 2.6200156e-05 1.6367139e-05)
(0.0031528887 2.4539754e-05 1.4335369e-05)
(0.0030724986 2.3088867e-05 1.261249e-05)
(0.0029991252 2.1796113e-05 1.1150136e-05)
(0.0029319421 2.0626904e-05 9.9064822e-06)
(0.0028702292 1.9558163e-05 8.8458158e-06)
(0.0028133589 1.8574038e-05 7.9385378e-06)
(0.0027607855 1.7663623e-05 7.1598229e-06)
(0.0027120345 1.6818833e-05 6.4890352e-06)
(0.0026666927 1.6033066e-05 5.9090208e-06)
(0.0026243991 1.5301093e-05 5.4052719e-06)
(0.0025848382 1.4618819e-05 4.965652e-06)
(0.0025477347 1.3982713e-05 4.5801151e-06)
(0.0025128472 1.3389543e-05 4.2403278e-06)
(0.002479964 1.2836282e-05 3.9393558e-06)
(0.0024488994 1.2320059e-05 3.6714252e-06)
(0.0024194896 1.1838144e-05 3.431726e-06)
(0.00239159 1.1387939e-05 3.2162511e-06)
(0.0023650729 1.0966985e-05 3.0216613e-06)
(0.0023398248 1.0572999e-05 2.845174e-06)
(0.0023157449 1.0203874e-05 2.6844756e-06)
(0.0022927433 9.8575802e-06 2.5375958e-06)
(0.0022707398 9.5322159e-06 2.4028649e-06)
(0.002249662 9.2260297e-06 2.2788675e-06)
(0.0022294453 8.9374196e-06 2.1644e-06)
(0.0022100312 8.6649292e-06 2.0584388e-06)
(0.0021913666 8.4072377e-06 1.9601009e-06)
(0.0021734038 8.1631549e-06 1.8686319e-06)
(0.0021560989 7.9316205e-06 1.7833668e-06)
(0.0021394122 7.7117242e-06 1.7037079e-06)
(0.0021233074 7.5026027e-06 1.6291514e-06)
(0.0021077512 7.303379e-06 1.5592834e-06)
(0.0020927129 7.1131875e-06 1.4937193e-06)
(0.0020781645 6.9314159e-06 1.4321037e-06)
(0.0020640799 6.7576061e-06 1.3741128e-06)
(0.0020504351 6.5912623e-06 1.3194609e-06)
(0.0020372075 6.4318804e-06 1.2678953e-06)
(0.0020243766 6.2790068e-06 1.2191866e-06)
(0.0020119231 6.1322414e-06 1.1731324e-06)
(0.001999829 5.9912218e-06 1.1295437e-06)
(0.0019880776 5.8556116e-06 1.0882502e-06)
(0.0019766531 5.7251038e-06 1.0490951e-06)
(0.0019655411 5.5994077e-06 1.0119382e-06)
(0.0019547276 5.4782447e-06 9.7664516e-07)
(0.0019441999 5.3613905e-06 9.4310116e-07)
(0.0019339458 5.2486484e-06 9.1119032e-07)
(0.0019239539 5.1398186e-06 8.8080772e-07)
(0.0019142135 5.0347024e-06 8.5185984e-07)
(0.0019047144 4.9331179e-06 8.2425933e-07)
(0.001895447 4.8349011e-06 7.9792399e-07)
(0.0018864023 4.7398909e-06 7.7277981e-07)
(0.0018775718 4.6479441e-06 7.4875715e-07)
(0.0018689473 4.5589238e-06 7.2578778e-07)
(0.0018605211 4.4727005e-06 7.0381452e-07)
(0.0018522861 4.3891536e-06 6.8277779e-07)
(0.0018442353 4.3081687e-06 6.6262534e-07)
(0.0018363621 4.2296393e-06 6.4330748e-07)
(0.0018286604 4.153459e-06 6.2477632e-07)
(0.0018211241 4.0795303e-06 6.0698851e-07)
(0.0018137478 4.0077546e-06 5.8990047e-07)
(0.0018065261 3.9380361e-06 5.7347211e-07)
(0.001799454 3.8702803e-06 5.5766691e-07)
(0.0017925266 3.8043815e-06 5.4244733e-07)
(0.0017857396 3.7402366e-06 5.2777853e-07)
(0.0017790885 3.6777274e-06 5.1362972e-07)
(0.0017725695 3.6167266e-06 4.9997046e-07)
(0.0017661787 3.5571082e-06 4.8677571e-07)
(0.0017599128 3.4987612e-06 4.7402647e-07)
(0.0017537682 3.4416541e-06 4.6171076e-07)
(0.0017477416 3.3859645e-06 4.4983603e-07)
(0.0017418294 3.3323826e-06 4.3844333e-07)
(0.0017360272 3.2827923e-06 4.2764692e-07)
(0.0017303281 3.241778e-06 4.1776827e-07)
(0.0017247202 3.2200423e-06 4.099907e-07)
(0.001719183 3.2421566e-06 4.0985014e-07)
(0.001713691 3.3643446e-06 4.4114432e-07)
(0.0017081999 3.7072203e-06 4.7353325e-07)
(0.0016974804 4.4611206e-06 1.8634988e-06)
(0.0095012861 0.00013951169 0.00022248511)
(0.0092133349 0.00022408324 0.00026709763)
(0.0088018509 0.0002570094 0.00025529581)
(0.0083306071 0.00026690691 0.0002382081)
(0.0078754299 0.00026502159 0.00021939836)
(0.0074527063 0.0002529565 0.00019823245)
(0.0070564396 0.00023295893 0.00017634609)
(0.0066827538 0.00020836345 0.0001552305)
(0.006331873 0.00018203353 0.00013558338)
(0.0060047052 0.00015603739 0.00011769036)
(0.0057015056 0.00013180401 0.00010166909)
(0.0054220192 0.00011020724 8.7524314e-05)
(0.0051656909 9.16319e-05 7.5171986e-05)
(0.0049316845 7.6091187e-05 6.4472618e-05)
(0.0047188814 6.3363143e-05 5.5261149e-05)
(0.0045259349 5.3104942e-05 4.7366821e-05)
(0.0043513547 4.4932757e-05 4.0624899e-05)
(0.0041935865 3.847136e-05 3.4883032e-05)
(0.0040510752 3.3381244e-05 3.0003996e-05)
(0.0039223115 2.9370509e-05 2.5866182e-05)
(0.0038058643 2.6197263e-05 2.2362868e-05)
(0.0037004012 2.3666733e-05 1.9400962e-05)
(0.0036047 2.1625759e-05 1.6899611e-05)
(0.0035176529 1.9956328e-05 1.4788824e-05)
(0.0034382652 1.8569048e-05 1.3008105e-05)
(0.0033656513 1.7397363e-05 1.1504745e-05)
(0.0032990266 1.6392003e-05 1.0233524e-05)
(0.0032376995 1.5516241e-05 9.1565342e-06)
(0.0031810636 1.4743887e-05 8.2421119e-06)
(0.0031285885 1.4056152e-05 7.4635746e-06)
(0.0030798115 1.3438893e-05 6.7985204e-06)
(0.0030343294 1.2881151e-05 6.2282224e-06)
(0.0029917905 1.2374493e-05 5.7369826e-06)
(0.0029518882 1.1912419e-05 5.3116666e-06)
(0.0029143553 1.148969e-05 4.9413534e-06)
(0.0028789586 1.1101929e-05 4.6170012e-06)
(0.0028454946 1.0745379e-05 4.3311217e-06)
(0.0028137847 1.0416774e-05 4.0775282e-06)
(0.0027836727 1.0113218e-05 3.8511082e-06)
(0.0027550209 9.8321214e-06 3.647646e-06)
(0.0027277081 9.5711601e-06 3.4636646e-06)
(0.002701627 9.3282496e-06 3.2963014e-06)
(0.0026766823 9.1015154e-06 3.1431918e-06)
(0.0026527895 8.8892437e-06 3.0023829e-06)
(0.0026298729 8.6898931e-06 2.8722564e-06)
(0.0026078648 8.5020913e-06 2.7514706e-06)
(0.002586704 8.324618e-06 2.6389094e-06)
(0.0025663358 8.1563975e-06 2.5336416e-06)
(0.0025467102 7.9964767e-06 2.4348842e-06)
(0.002527782 7.8440282e-06 2.341978e-06)
(0.0025095101 7.6983365e-06 2.254361e-06)
(0.0024918566 7.5588104e-06 2.1715451e-06)
(0.0024747871 7.4248995e-06 2.0931136e-06)
(0.0024582699 7.2960218e-06 2.0187202e-06)
(0.0024422756 7.1714388e-06 1.9480698e-06)
(0.0024267775 7.0509276e-06 1.8808986e-06)
(0.0024117506 6.9343773e-06 1.8169512e-06)
(0.0023971715 6.821491e-06 1.7560024e-06)
(0.0023830185 6.7119574e-06 1.6978529e-06)
(0.0023692714 6.6055398e-06 1.642328e-06)
(0.0023559116 6.5020454e-06 1.5892725e-06)
(0.0023429214 6.40131e-06 1.5385386e-06)
(0.0023302844 6.3031804e-06 1.4899936e-06)
(0.0023179851 6.2075237e-06 1.4435162e-06)
(0.0023060089 6.1142048e-06 1.3989937e-06)
(0.0022943424 6.0230686e-06 1.3563247e-06)
(0.0022829727 5.9340575e-06 1.3154155e-06)
(0.0022718877 5.8471287e-06 1.2761703e-06)
(0.002261076 5.762203e-06 1.2385021e-06)
(0.0022505267 5.6791975e-06 1.202332e-06)
(0.0022402296 5.598041e-06 1.1675832e-06)
(0.0022301752 5.5186727e-06 1.1341879e-06)
(0.0022203542 5.4410306e-06 1.1020802e-06)
(0.002210758 5.3650624e-06 1.0711986e-06)
(0.0022013784 5.2907175e-06 1.0414846e-06)
(0.0021922076 5.2179484e-06 1.0128816e-06)
(0.0021832381 5.1467097e-06 9.8533821e-07)
(0.0021744628 5.076957e-06 9.5880342e-07)
(0.0021658752 5.0086518e-06 9.3322987e-07)
(0.0021574688 4.9417455e-06 9.0857432e-07)
(0.0021492375 4.8762005e-06 8.8479105e-07)
(0.0021411756 4.8119679e-06 8.6183931e-07)
(0.0021332776 4.748999e-06 8.3967886e-07)
(0.0021255383 4.6872391e-06 8.1827049e-07)
(0.0021179527 4.6266212e-06 7.975766e-07)
(0.0021105161 4.567067e-06 7.7756034e-07)
(0.0021032242 4.5084817e-06 7.5818438e-07)
(0.0020960727 4.450755e-06 7.3941138e-07)
(0.0020890577 4.3937755e-06 7.2120344e-07)
(0.0020821756 4.337456e-06 7.0352111e-07)
(0.002075423 4.2818106e-06 6.8632161e-07)
(0.0020687967 4.2271333e-06 6.6956201e-07)
(0.0020622937 4.1743537e-06 6.5320381e-07)
(0.002055911 4.125815e-06 6.3726196e-07)
(0.0020496453 4.0868301e-06 6.2198521e-07)
(0.0020434926 4.0687777e-06 6.087469e-07)
(0.0020374483 4.0948778e-06 6.04522e-07)
(0.0020315149 4.2094267e-06 6.3987828e-07)
(0.0020256647 4.4797485e-06 7.1688479e-07)
(0.0020144539 4.9057766e-06 2.2695255e-06)
(0.0094902877 9.6726608e-05 0.00022289229)
(0.00917661 0.00016632333 0.00026788105)
(0.0087449456 0.00019969046 0.00025550648)
(0.0082664657 0.00021101604 0.00023762681)
(0.00781215 0.0002109939 0.00021816029)
(0.0073950862 0.0002028236 0.00019646328)
(0.0070087986 0.00018827265 0.00017418493)
(0.006648835 0.00016968865 0.0001528463)
(0.0063142174 0.00014929331 0.00013312182)
(0.0060045996 0.00012875288 0.0001152379)
(0.0057192201 0.00010923292 9.9256791e-05)
(0.0054570682 9.149007e-05 8.5148909e-05)
(0.0052170782 7.59234e-05 7.2816212e-05)
(0.0049981259 6.2643332e-05 6.2119133e-05)
(0.0047989841 5.1561153e-05 5.2900047e-05)
(0.0046183234 4.247228e-05 4.4997975e-05)
(0.0044547458 3.5118725e-05 3.8256897e-05)
(0.0043068267 2.9230544e-05 3.2530442e-05)
(0.0041731526 2.4550833e-05 2.768434e-05)
(0.0040523509 2.0849111e-05 2.3597363e-05)
(0.0039431142 1.7926912e-05 2.0161345e-05)
(0.0038442168 1.5618601e-05 1.7280682e-05)
(0.0037545253 1.3789366e-05 1.4871531e-05)
(0.0036730042 1.2331759e-05 1.2860863e-05)
(0.0035987172 1.1161539e-05 1.1185212e-05)
(0.0035308246 1.0213366e-05 9.7889744e-06)
(0.0034685786 9.4380823e-06 8.6250717e-06)
(0.0034113173 8.7971268e-06 7.6543153e-06)
(0.0033584589 8.2627204e-06 6.8439393e-06)
(0.0033094933 7.8140803e-06 6.1664544e-06)
(0.0032639753 7.4348232e-06 5.5988441e-06)
(0.0032215172 7.1121304e-06 5.1219259e-06)
(0.0031817817 6.8360952e-06 4.7197278e-06)
(0.0031444758 6.5990192e-06 4.378973e-06)
(0.0031093448 6.3947786e-06 4.0886813e-06)
(0.0030761678 6.2184042e-06 3.8397975e-06)
(0.0030447526 6.0657951e-06 3.6248783e-06)
(0.003014932 5.9335257e-06 3.4378176e-06)
(0.0029865602 5.8186952e-06 3.2736178e-06)
(0.0029595097 5.7188194e-06 3.1282053e-06)
(0.002933669 5.6317506e-06 2.9982623e-06)
(0.00290894 5.5556267e-06 2.8810973e-06)
(0.0028852364 5.4888245e-06 2.7745339e-06)
(0.0028624815 5.4299137e-06 2.6768106e-06)
(0.0028406075 5.3776449e-06 2.5865058e-06)
(0.0028195538 5.3309253e-06 2.502473e-06)
(0.0027992664 5.2888096e-06 2.4237885e-06)
(0.0027796963 5.2504819e-06 2.349711e-06)
(0.0027607998 5.2152418e-06 2.2796382e-06)
(0.002742537 5.1824985e-06 2.2130834e-06)
(0.0027248717 5.151766e-06 2.1496545e-06)
(0.0027077708 5.1226684e-06 2.0890228e-06)
(0.0026912041 5.0948959e-06 2.0309206e-06)
(0.0026751435 5.068087e-06 1.9751364e-06)
(0.0026595636 5.0410656e-06 1.9215394e-06)
(0.0026444411 5.0142587e-06 1.8699678e-06)
(0.002629754 4.9880174e-06 1.8202514e-06)
(0.0026154815 4.9620729e-06 1.7722788e-06)
(0.0026016045 4.9361413e-06 1.7259609e-06)
(0.0025881054 4.9100863e-06 1.6812145e-06)
(0.0025749674 4.8838334e-06 1.6379659e-06)
(0.002562175 4.8573404e-06 1.5961461e-06)
(0.0025497136 4.8305813e-06 1.5556921e-06)
(0.0025375693 4.8035394e-06 1.5165489e-06)
(0.0025257292 4.7761762e-06 1.4786605e-06)
(0.002514181 4.7483837e-06 1.4419859e-06)
(0.0025029134 4.7202741e-06 1.4064828e-06)
(0.0024919154 4.6919133e-06 1.3721022e-06)
(0.0024811765 4.663289e-06 1.3387978e-06)
(0.002470687 4.6344011e-06 1.3065289e-06)
(0.0024604377 4.6052663e-06 1.2752596e-06)
(0.0024504197 4.5759087e-06 1.2449538e-06)
(0.0024406247 4.5463459e-06 1.2155757e-06)
(0.0024310448 4.5165999e-06 1.1870931e-06)
(0.0024216723 4.4866944e-06 1.1594722e-06)
(0.0024125001 4.4566511e-06 1.1326836e-06)
(0.0024035213 4.4264891e-06 1.1066972e-06)
(0.0023947295 4.396229e-06 1.0814827e-06)
(0.0023861184 4.3658905e-06 1.0570123e-06)
(0.0023776821 4.3354882e-06 1.0332599e-06)
(0.0023694149 4.3050347e-06 1.0101953e-06)
(0.0023613115 4.2745363e-06 9.8779551e-07)
(0.0023533667 4.2439937e-06 9.6603092e-07)
(0.0023455757 4.2133954e-06 9.448744e-07)
(0.0023379338 4.1827207e-06 9.2429955e-07)
(0.0023304365 4.1519273e-06 9.0427584e-07)
(0.0023230798 4.1209543e-06 8.8477271e-07)
(0.0023158598 4.0897248e-06 8.6575221e-07)
(0.0023087726 4.058157e-06 8.4717282e-07)
(0.002301815 4.026193e-06 8.2898073e-07)
(0.0022949838 3.9938778e-06 8.1110686e-07)
(0.0022882766 3.9615306e-06 7.9346269e-07)
(0.002281691 3.9300785e-06 7.7594422e-07)
(0.0022752261 3.9016919e-06 7.5847726e-07)
(0.002268882 3.8809403e-06 7.4124706e-07)
(0.0022626608 3.8766482e-06 7.2572659e-07)
(0.0022565686 3.9043046e-06 7.1957923e-07)
(0.0022506189 3.9866557e-06 7.557985e-07)
(0.0022447715 4.1390998e-06 8.4931784e-07)
(0.002233564 4.2832243e-06 2.412211e-06)
(0.0094843561 6.6886587e-05 0.00022303624)
(0.0091549219 0.00011904886 0.00026838771)
(0.0087072816 0.00014772496 0.00025588053)
(0.0082191888 0.00015892952 0.00023765677)
(0.0077602858 0.00016026049 0.00021787143)
(0.0073412804 0.00015505102 0.00019586613)
(0.0069552494 0.00014481701 0.00017327438)
(0.0065978366 0.00013121473 0.00015165024)
(0.0062677954 0.00011592881 0.00013169211)
(0.0059642872 0.00010028521 0.0001136244)
(0.0056860598 8.5214432e-05 9.7497522e-05)
(0.0054316726 7.1330407e-05 8.3272196e-05)
(0.0051997008 5.8984298e-05 7.0844884e-05)
(0.0049887459 4.8311754e-05 6.0073374e-05)
(0.0047973943 3.9291583e-05 5.079889e-05)
(0.0046242055 3.1804355e-05 4.2859902e-05)
(0.0044677269 2.5679087e-05 3.6099808e-05)
(0.0043265179 2.0725786e-05 3.0371291e-05)
(0.0041991724 1.6756344e-05 2.5538702e-05)
(0.004084339 1.3596838e-05 2.1479083e-05)
(0.0039807371 1.1093754e-05 1.8082324e-05)
(0.0038871692 9.1161643e-06 1.525079e-05)
(0.0038025288 7.5553811e-06 1.2898647e-05)
(0.003725804 6.3231355e-06 1.0950987e-05)
(0.0036560786 5.3488185e-06 9.3426779e-06)
(0.0035925304 4.5751808e-06 8.0166132e-06)
(0.0035344253 3.9620985e-06 6.9239485e-06)
(0.0034811131 3.4726259e-06 6.0250736e-06)
(0.0034320221 3.0815189e-06 5.2862638e-06)
(0.0033866501 2.7702756e-06 4.6792105e-06)
(0.0033445586 2.5236726e-06 4.1805212e-06)
(0.0033053662 2.329586e-06 3.7707517e-06)
(0.0032687419 2.1784975e-06 3.4337451e-06)
(0.0032343982 2.0629045e-06 3.1561109e-06)
(0.0032020863 1.976809e-06 2.9267981e-06)
(0.0031715907 1.9153162e-06 2.736704e-06)
(0.0031427248 1.8743796e-06 2.578355e-06)
(0.0031153267 1.8506033e-06 2.4456282e-06)
(0.0030892563 1.8411239e-06 2.333523e-06)
(0.0030643915 1.8434983e-06 2.2379667e-06)
(0.003040626 1.8556449e-06 2.1556641e-06)
(0.0030178671 1.8757812e-06 2.0839524e-06)
(0.0029960335 1.9023817e-06 2.0206947e-06)
(0.0029750538 1.9341354e-06 1.9641821e-06)
(0.0029548649 1.9699169e-06 1.9130529e-06)
(0.0029354109 2.008764e-06 1.866227e-06)
(0.0029166424 2.0498579e-06 1.8228522e-06)
(0.0028985148 2.0925096e-06 1.7822571e-06)
(0.0028809885 2.1361374e-06 1.7439149e-06)
(0.0028640277 2.1802716e-06 1.7074102e-06)
(0.0028476 2.2245512e-06 1.6724149e-06)
(0.0028316758 2.2687605e-06 1.6386561e-06)
(0.0028162284 2.3128928e-06 1.6058719e-06)
(0.0028012324 2.3570803e-06 1.5738227e-06)
(0.0027866658 2.3978718e-06 1.5431892e-06)
(0.0027725089 2.4362369e-06 1.5136876e-06)
(0.0027587418 2.4734406e-06 1.4848887e-06)
(0.002745346 2.5095345e-06 1.4567014e-06)
(0.002732305 2.5443507e-06 1.4291163e-06)
(0.0027196032 2.577772e-06 1.402111e-06)
(0.0027072261 2.6097251e-06 1.3756643e-06)
(0.0026951602 2.6401666e-06 1.3497569e-06)
(0.0026833928 2.6690892e-06 1.3243752e-06)
(0.0026719116 2.6965044e-06 1.2995098e-06)
(0.0026607054 2.7223717e-06 1.2751525e-06)
(0.0026497635 2.7463559e-06 1.2513134e-06)
(0.002639076 2.7689084e-06 1.2279778e-06)
(0.0026286333 2.7901459e-06 1.2051292e-06)
(0.0026184262 2.8099925e-06 1.1827611e-06)
(0.0026084461 2.8284314e-06 1.1608695e-06)
(0.0025986849 2.8454927e-06 1.1394494e-06)
(0.0025891348 2.8612182e-06 1.11849e-06)
(0.0025797885 2.8756487e-06 1.0979863e-06)
(0.002570639 2.8888296e-06 1.0779281e-06)
(0.0025616795 2.9008054e-06 1.0583088e-06)
(0.0025529038 2.9116204e-06 1.0391183e-06)
(0.0025443058 2.9213144e-06 1.0203488e-06)
(0.0025358796 2.9299296e-06 1.0019902e-06)
(0.0025276198 2.9375068e-06 9.8403289e-07)
(0.002519521 2.9440811e-06 9.6646594e-07)
(0.0025115783 2.949682e-06 9.4927926e-07)
(0.0025037869 2.954338e-06 9.3246226e-07)
(0.0024961421 2.9580682e-06 9.1600007e-07)
(0.0024886396 2.9608813e-06 8.9988023e-07)
(0.0024812752 2.9627734e-06 8.8408556e-07)
(0.002474045 2.9637228e-06 8.685945e-07)
(0.0024669452 2.963689e-06 8.5338195e-07)
(0.0024599723 2.9626129e-06 8.384134e-07)
(0.0024531231 2.9604302e-06 8.2364305e-07)
(0.0024463945 2.9570966e-06 8.0900284e-07)
(0.0024397839 2.9526516e-06 7.9439836e-07)
(0.0024332895 2.9473511e-06 7.7969366e-07)
(0.0024269099 2.941913e-06 7.6470975e-07)
(0.0024206457 2.9379216e-06 7.4925989e-07)
(0.0024144993 2.9384186e-06 7.3336512e-07)
(0.0024084767 2.9484956e-06 7.1826461e-07)
(0.0024025877 2.975125e-06 7.1113379e-07)
(0.002396846 3.0234604e-06 7.4331277e-07)
(0.0023911946 3.0808287e-06 8.3046561e-07)
(0.0023803644 3.0574249e-06 2.2999435e-06)
(0.0094810492 4.4090136e-05 0.00022308885)
(0.0091422796 7.9975483e-05 0.00026874495)
(0.0086839084 0.00010160921 0.00025628771)
(0.0081880903 0.00011101591 0.00023793456)
(0.0077246858 0.00011275117 0.00021798622)
(0.0073029895 0.00010953687 0.00019578738)
(0.0069155191 0.00010266029 0.00017296032)
(0.0065579578 9.3267234e-05 0.0001510852)
(0.006229001 8.2539593e-05 0.00013089045)
(0.005927585 7.1446832e-05 0.00011261412)
(0.0056522063 6.0673359e-05 9.6309239e-05)
(0.0054012005 5.0670807e-05 8.1936268e-05)
(0.0051729477 4.1706609e-05 6.9390832e-05)
(0.004965887 3.3898117e-05 5.8529097e-05)
(0.0047784814 2.7249956e-05 4.9189879e-05)
(0.0046092054 2.1693075e-05 4.1208772e-05)
(0.0044565535 1.7117439e-05 3.4426143e-05)
(0.0043190553 1.339552e-05 2.8691658e-05)
(0.0041952917 1.0397813e-05 2.3866805e-05)
(0.0040839086 8.0023323e-06 1.9826012e-05)
(0.0039836292 6.0997707e-06 1.645686e-05)
(0.0038932634 4.5956623e-06 1.3659715e-05)
(0.0038117126 3.4106739e-06 1.1347012e-05)
(0.0037379734 2.4799296e-06 9.4422921e-06)
(0.0036711359 1.7515111e-06 7.8790893e-06)
(0.0036103859 1.1749053e-06 6.6010325e-06)
(0.0035549935 7.2234039e-07 5.5561204e-06)
(0.0035043108 3.7342512e-07 4.7060698e-06)
(0.0034577717 1.0569604e-07 4.0163446e-06)
(0.0034148763 -9.9089216e-08 3.4574137e-06)
(0.0033751872 -2.533371e-07 3.0054953e-06)
(0.0033383243 -3.6640057e-07 2.6409742e-06)
(0.0033039576 -4.4577915e-07 2.3475737e-06)
(0.0032718009 -4.9748467e-07 2.1118272e-06)
(0.0032416065 -5.2634686e-07 1.922642e-06)
(0.0032131599 -5.3631103e-07 1.7709149e-06)
(0.0031862758 -5.3064049e-07 1.6492022e-06)
(0.0031607936 -5.120633e-07 1.5514409e-06)
(0.0031365743 -4.828716e-07 1.4727107e-06)
(0.0031134976 -4.450076e-07 1.409033e-06)
(0.0030914586 -4.0011081e-07 1.3572063e-06)
(0.0030703663 -3.4957849e-07 1.3146573e-06)
(0.0030501409 -2.9459439e-07 1.2793312e-06)
(0.0030307129 -2.3616777e-07 1.2495915e-06)
(0.0030120207 -1.7516464e-07 1.2241398e-06)
(0.0029940105 -1.1231971e-07 1.2019523e-06)
(0.0029766343 -4.8267678e-08 1.1822238e-06)
(0.0029598495 1.6449954e-08 1.1643213e-06)
(0.0029436181 8.1355383e-08 1.1477526e-06)
(0.002927906 1.4602564e-07 1.1321244e-06)
(0.0029126825 2.1005946e-07 1.1171188e-06)
(0.0028979201 2.7304918e-07 1.1024395e-06)
(0.0028835935 3.3454075e-07 1.0876616e-06)
(0.0028696773 3.9432391e-07 1.0722023e-06)
(0.0028561514 4.5704947e-07 1.0590087e-06)
(0.0028429997 5.2060225e-07 1.0472573e-06)
(0.0028302035 5.8225431e-07 1.0356086e-06)
(0.0028177449 6.4163891e-07 1.0238013e-06)
(0.0028056084 6.9901973e-07 1.0118757e-06)
(0.0027937799 7.5455945e-07 9.9986923e-07)
(0.0027822461 8.0835001e-07 9.8781126e-07)
(0.0027709946 8.6046877e-07 9.7571935e-07)
(0.0027600137 9.1102671e-07 9.6360202e-07)
(0.0027492926 9.6019509e-07 9.5144742e-07)
(0.0027388207 1.0080059e-06 9.3926671e-07)
(0.0027285887 1.0528498e-06 9.2746472e-07)
(0.0027185878 1.0958662e-06 9.1582847e-07)
(0.0027088089 1.1374993e-06 9.0425375e-07)
(0.0026992438 1.1777667e-06 8.9275961e-07)
(0.0026898847 1.2166566e-06 8.8136591e-07)
(0.0026807244 1.2541702e-06 8.7007992e-07)
(0.0026717559 1.290315e-06 8.5890692e-07)
(0.0026629726 1.3251088e-06 8.4785296e-07)
(0.0026543682 1.3585739e-06 8.3692244e-07)
(0.0026459367 1.3907403e-06 8.2612091e-07)
(0.0026376723 1.421636e-06 8.1545178e-07)
(0.0026295698 1.4512904e-06 8.0491987e-07)
(0.0026216238 1.4797316e-06 7.9452331e-07)
(0.0026138294 1.5069906e-06 7.8426254e-07)
(0.002606182 1.5330938e-06 7.7414011e-07)
(0.0025986769 1.5580639e-06 7.6415084e-07)
(0.0025913099 1.5819218e-06 7.5429539e-07)
(0.0025840769 1.6046811e-06 7.4456517e-07)
(0.0025769739 1.6263491e-06 7.3495221e-07)