/*--------------------------------*- C++ -*----------------------------------*\
  =========                 |
  \\      /  F ield         | OpenFOAM: The Open Source CFD Toolbox
   \\    /   O peration     | Website:  https://openfoam.org
    \\  /    A nd           | Version:  7
     \\/     M anipulation  |
\*---------------------------------------------------------------------------*/
FoamFile
{
    version     2.0;
    format      ascii;
    class       volScalarField;
    location    "1900/water";
    object      T;
}
// * * * * * * * * * * * * * * * * * * * * * * * * * * * * * * * * * * * * * //

dimensions      [0 0 0 1 0 0 0];

internalField   nonuniform List<scalar> 
54000
(
300.00147
300.00308
300.00488
300.00689
300.00915
300.01167
300.01449
300.01761
300.02099
300.0246
300.02838
300.03224
300.03612
300.03995
300.04368
300.04727
300.0507
300.05394
300.05698
300.05983
300.06249
300.06496
300.06724
300.06936
300.07131
300.07311
300.07478
300.07632
300.07774
300.07905
300.08027
300.0814
300.08245
300.08343
300.08435
300.0852
300.08599
300.08674
300.08744
300.0881
300.08872
300.08931
300.08986
300.09039
300.09088
300.09136
300.0918
300.09223
300.09264
300.09303
300.0934
300.09375
300.09409
300.09442
300.09473
300.09503
300.09532
300.0956
300.09587
300.09613
300.09638
300.09662
300.09686
300.09709
300.09731
300.09752
300.09772
300.09793
300.09812
300.09831
300.09849
300.09867
300.09885
300.09901
300.09918
300.09934
300.0995
300.09965
300.0998
300.09994
300.10008
300.10022
300.10036
300.10049
300.10061
300.10074
300.10086
300.10098
300.1011
300.10121
300.10132
300.10143
300.10153
300.10163
300.10173
300.10183
300.10192
300.10201
300.1021
300.10219
300.00008
300.00026
300.00053
300.00089
300.00135
300.00189
300.00251
300.00319
300.00393
300.0047
300.00551
300.00636
300.00725
300.00818
300.00916
300.01019
300.01127
300.0124
300.01356
300.01475
300.01597
300.0172
300.01844
300.01967
300.02091
300.02213
300.02334
300.02453
300.02569
300.02683
300.02795
300.02904
300.0301
300.03114
300.03214
300.03312
300.03408
300.035
300.0359
300.03678
300.03763
300.03846
300.03926
300.04005
300.04081
300.04155
300.04227
300.04297
300.04365
300.04432
300.04496
300.04559
300.04621
300.04681
300.04739
300.04796
300.04851
300.04906
300.04958
300.0501
300.0506
300.0511
300.05158
300.05205
300.05251
300.05296
300.0534
300.05383
300.05425
300.05466
300.05506
300.05546
300.05584
300.05622
300.05659
300.05696
300.05731
300.05766
300.058
300.05834
300.05867
300.05899
300.05931
300.05962
300.05992
300.06022
300.06052
300.0608
300.06108
300.06136
300.06163
300.06189
300.06215
300.06241
300.06266
300.0629
300.06314
300.06338
300.06362
300.06388
300
300.00002
300.00005
300.0001
300.00018
300.00028
300.00041
300.00056
300.00073
300.00091
300.0011
300.00129
300.00149
300.0017
300.00192
300.00216
300.0024
300.00267
300.00295
300.00325
300.00357
300.00392
300.00428
300.00466
300.00505
300.00547
300.0059
300.00634
300.00679
300.00725
300.00772
300.0082
300.00868
300.00917
300.00966
300.01015
300.01064
300.01114
300.01163
300.01212
300.01262
300.01311
300.01359
300.01408
300.01456
300.01504
300.01552
300.01599
300.01646
300.01692
300.01738
300.01784
300.01829
300.01873
300.01918
300.01961
300.02005
300.02047
300.0209
300.02131
300.02173
300.02213
300.02254
300.02294
300.02333
300.02372
300.0241
300.02448
300.02486
300.02523
300.0256
300.02596
300.02632
300.02667
300.02702
300.02737
300.02771
300.02804
300.02838
300.02871
300.02903
300.02935
300.02967
300.02998
300.03029
300.0306
300.0309
300.0312
300.03149
300.03178
300.03207
300.03235
300.03263
300.03291
300.03318
300.03345
300.03371
300.03398
300.03425
300.03453
300
300
300
300.00001
300.00002
300.00003
300.00006
300.00008
300.00011
300.00015
300.00019
300.00023
300.00028
300.00032
300.00037
300.00042
300.00047
300.00053
300.00059
300.00065
300.00072
300.0008
300.00088
300.00096
300.00106
300.00116
300.00127
300.00138
300.0015
300.00163
300.00176
300.0019
300.00205
300.0022
300.00236
300.00252
300.00269
300.00286
300.00304
300.00322
300.00341
300.0036
300.0038
300.004
300.0042
300.0044
300.00461
300.00482
300.00503
300.00525
300.00546
300.00568
300.0059
300.00612
300.00634
300.00657
300.00679
300.00702
300.00724
300.00747
300.0077
300.00792
300.00815
300.00838
300.00861
300.00883
300.00906
300.00929
300.00952
300.00974
300.00997
300.01019
300.01042
300.01064
300.01086
300.01109
300.01131
300.01153
300.01175
300.01197
300.01219
300.0124
300.01262
300.01284
300.01305
300.01326
300.01347
300.01369
300.0139
300.0141
300.01431
300.01452
300.01472
300.01493
300.01513
300.01533
300.01553
300.01573
300.01594
300.01614
300
300
300
300
300
300
300.00001
300.00001
300.00001
300.00002
300.00003
300.00003
300.00004
300.00005
300.00006
300.00007
300.00008
300.00009
300.0001
300.00011
300.00012
300.00014
300.00015
300.00017
300.00019
300.00021
300.00023
300.00025
300.00028
300.00031
300.00034
300.00037
300.0004
300.00044
300.00047
300.00051
300.00056
300.0006
300.00065
300.0007
300.00075
300.0008
300.00086
300.00092
300.00098
300.00104
300.00111
300.00118
300.00125
300.00132
300.00139
300.00147
300.00155
300.00163
300.00171
300.0018
300.00188
300.00197
300.00206
300.00215
300.00224
300.00234
300.00243
300.00253
300.00262
300.00272
300.00282
300.00293
300.00303
300.00313
300.00324
300.00334
300.00345
300.00356
300.00366
300.00377
300.00388
300.00399
300.0041
300.00421
300.00433
300.00444
300.00455
300.00466
300.00478
300.00489
300.00501
300.00512
300.00523
300.00535
300.00547
300.00558
300.0057
300.00581
300.00593
300.00604
300.00616
300.00628
300.0064
300.00651
300
300
300
300
300
300
300
300
300
300
300
300
300.00001
300.00001
300.00001
300.00001
300.00001
300.00001
300.00001
300.00002
300.00002
300.00002
300.00002
300.00003
300.00003
300.00003
300.00004
300.00004
300.00004
300.00005
300.00005
300.00006
300.00007
300.00007
300.00008
300.00009
300.0001
300.0001
300.00011
300.00013
300.00014
300.00015
300.00016
300.00017
300.00019
300.0002
300.00022
300.00024
300.00025
300.00027
300.00029
300.00031
300.00033
300.00036
300.00038
300.0004
300.00043
300.00046
300.00048
300.00051
300.00054
300.00057
300.0006
300.00063
300.00066
300.0007
300.00073
300.00077
300.0008
300.00084
300.00088
300.00091
300.00095
300.00099
300.00103
300.00108
300.00112
300.00116
300.0012
300.00125
300.00129
300.00134
300.00139
300.00143
300.00148
300.00153
300.00158
300.00163
300.00168
300.00173
300.00178
300.00183
300.00188
300.00194
300.00199
300.00204
300.0021
300.00215
300.00221
300.00226
300
300
300
300
300
300
300
300
300
300
300
300
300
300
300
300
300
300
300
300
300
300
300
300
300
300
300
300.00001
300.00001
300.00001
300.00001
300.00001
300.00001
300.00001
300.00001
300.00001
300.00001
300.00002
300.00002
300.00002
300.00002
300.00002
300.00003
300.00003
300.00003
300.00003
300.00004
300.00004
300.00004
300.00005
300.00005
300.00006
300.00006
300.00007
300.00007
300.00008
300.00008
300.00009
300.0001
300.0001
300.00011
300.00012
300.00012
300.00013
300.00014
300.00015
300.00016
300.00017
300.00018
300.00019
300.0002
300.00021
300.00022
300.00024
300.00025
300.00026
300.00027
300.00029
300.0003
300.00031
300.00033
300.00034
300.00036
300.00038
300.00039
300.00041
300.00043
300.00044
300.00046
300.00048
300.0005
300.00052
300.00054
300.00056
300.00058
300.0006
300.00062
300.00064
300.00066
300.00068
300
300
300
300
300
300
300
300
300
300
300
300
300
300
300
300
300
300
300
300
300
300
300
300
300
300
300
300
300
300
300
300
300
300
300
300
300
300
300
300
300
300
300
300
300
300.00001
300.00001
300.00001
300.00001
300.00001
300.00001
300.00001
300.00001
300.00001
300.00001
300.00001
300.00001
300.00002
300.00002
300.00002
300.00002
300.00002
300.00002
300.00002
300.00003
300.00003
300.00003
300.00003
300.00004
300.00004
300.00004
300.00004
300.00005
300.00005
300.00005
300.00006
300.00006
300.00006
300.00007
300.00007
300.00007
300.00008
300.00008
300.00009
300.00009
300.0001
300.0001
300.00011
300.00011
300.00012
300.00012
300.00013
300.00013
300.00014
300.00015
300.00015
300.00016
300.00017
300.00017
300.00018
300
300
300
300
300
300
300
300
300
300
300
300
300
300
300
300
300
300
300
300
300
300
300
300
300
300
300
300
300
300
300
300
300
300
300
300
300
300
300
300
300
300
300
300
300
300
300
300
300
300
300
300
300
300
300
300
300
300
300
300
300
300
300
300
300.00001
300.00001
300.00001
300.00001
300.00001
300.00001
300.00001
300.00001
300.00001
300.00001
300.00001
300.00001
300.00001
300.00001
300.00001
300.00002
300.00002
300.00002
300.00002
300.00002
300.00002
300.00002
300.00002
300.00003
300.00003
300.00003
300.00003
300.00003
300.00004
300.00004
300.00004
300.00004
300.00004
300.00005
300.00005
300.00005
300
300
300
300
300
300
300
300
300
300
300
300
300
300
300
300
300
300
300
300
300
300
300
300
300
300
300
300
300
300
300
300
300
300
300
300
300
300
300
300
300
300
300
300
300
300
300
300
300
300
300
300
300
300
300
300
300
300
300
300
300
300
300
300
300
300.00001
300.00001
300.00001
300.00001
300.00001
300.00001
300.00001
300.00001
300.00001
300.00001
300.00001
300.00001
300.00001
300.00001
300.00002
300.00002
300.00002
300.00002
300.00002
300.00002
300.00002
300.00002
300.00003
300.00003
300.00003
300.00003
300.00003
300.00003
300.00004
300.00004
300.00004
300.00004
300.00005
300.00005
300.00005
300
300
300
300
300
300
300
300
300
300
300
300
300
300
300
300
300
300
300
300
300
300
300
300
300
300
300
300
300
300
300
300
300
300
300
300
300
300
300
300
300
300
300
300
300
300
300
300.00001
300.00001
300.00001
300.00001
300.00001
300.00001
300.00001
300.00001
300.00001
300.00001
300.00001
300.00002
300.00002
300.00002
300.00002
300.00002
300.00002
300.00003
300.00003
300.00003
300.00003
300.00003
300.00004
300.00004
300.00004
300.00004
300.00005
300.00005
300.00005
300.00006
300.00006
300.00006
300.00007
300.00007
300.00008
300.00008
300.00009
300.00009
300.00009
300.0001
300.0001
300.00011
300.00012
300.00012
300.00013
300.00013
300.00014
300.00015
300.00015
300.00016
300.00017
300.00017
300.00018
300
300
300
300
300
300
300
300
300
300
300
300
300
300
300
300
300
300
300
300
300
300
300
300
300
300
300
300
300.00001
300.00001
300.00001
300.00001
300.00001
300.00001
300.00001
300.00001
300.00001
300.00001
300.00002
300.00002
300.00002
300.00002
300.00002
300.00003
300.00003
300.00003
300.00004
300.00004
300.00004
300.00005
300.00005
300.00006
300.00006
300.00006
300.00007
300.00008
300.00008
300.00009
300.00009
300.0001
300.00011
300.00012
300.00012
300.00013
300.00014
300.00015
300.00016
300.00017
300.00018
300.00019
300.0002
300.00021
300.00022
300.00023
300.00025
300.00026
300.00027
300.00029
300.0003
300.00031
300.00033
300.00034
300.00036
300.00037
300.00039
300.00041
300.00042
300.00044
300.00046
300.00048
300.0005
300.00052
300.00053
300.00055
300.00057
300.00059
300.00061
300.00064
300.00066
300.00068
300
300
300
300
300
300
300
300
300
300
300
300
300
300.00001
300.00001
300.00001
300.00001
300.00001
300.00001
300.00002
300.00002
300.00002
300.00002
300.00002
300.00003
300.00003
300.00003
300.00004
300.00004
300.00005
300.00005
300.00006
300.00006
300.00007
300.00008
300.00009
300.00009
300.0001
300.00011
300.00012
300.00014
300.00015
300.00016
300.00017
300.00019
300.0002
300.00022
300.00024
300.00025
300.00027
300.00029
300.00031
300.00033
300.00036
300.00038
300.0004
300.00043
300.00045
300.00048
300.00051
300.00054
300.00057
300.0006
300.00063
300.00066
300.0007
300.00073
300.00076
300.0008
300.00084
300.00087
300.00091
300.00095
300.00099
300.00103
300.00107
300.00112
300.00116
300.0012
300.00125
300.00129
300.00134
300.00139
300.00143
300.00148
300.00153
300.00158
300.00163
300.00168
300.00173
300.00178
300.00183
300.00188
300.00194
300.00199
300.00204
300.0021
300.00215
300.00221
300.00226
300
300
300
300
300
300
300.00001
300.00001
300.00001
300.00002
300.00003
300.00003
300.00004
300.00005
300.00006
300.00007
300.00008
300.00009
300.0001
300.00011
300.00012
300.00014
300.00015
300.00017
300.00019
300.00021
300.00023
300.00025
300.00028
300.00031
300.00033
300.00037
300.0004
300.00043
300.00047
300.00051
300.00056
300.0006
300.00065
300.0007
300.00075
300.0008
300.00086
300.00092
300.00098
300.00104
300.00111
300.00118
300.00125
300.00132
300.00139
300.00147
300.00155
300.00163
300.00171
300.0018
300.00188
300.00197
300.00206
300.00215
300.00224
300.00233
300.00243
300.00253
300.00262
300.00272
300.00282
300.00293
300.00303
300.00313
300.00324
300.00334
300.00345
300.00356
300.00366
300.00377
300.00388
300.00399
300.0041
300.00421
300.00433
300.00444
300.00455
300.00466
300.00478
300.00489
300.00501
300.00512
300.00523
300.00535
300.00547
300.00558
300.0057
300.00581
300.00593
300.00604
300.00616
300.00628
300.0064
300.00652
300
300
300
300.00001
300.00002
300.00003
300.00005
300.00008
300.00011
300.00015
300.00019
300.00023
300.00027
300.00032
300.00037
300.00042
300.00047
300.00053
300.00059
300.00065
300.00072
300.0008
300.00088
300.00096
300.00106
300.00116
300.00127
300.00138
300.0015
300.00163
300.00176
300.0019
300.00205
300.0022
300.00236
300.00252
300.00269
300.00286
300.00304
300.00322
300.00341
300.0036
300.0038
300.004
300.0042
300.0044
300.00461
300.00482
300.00503
300.00525
300.00546
300.00568
300.0059
300.00612
300.00635
300.00657
300.00679
300.00702
300.00725
300.00747
300.0077
300.00793
300.00815
300.00838
300.00861
300.00884
300.00906
300.00929
300.00952
300.00974
300.00997
300.01019
300.01042
300.01064
300.01087
300.01109
300.01131
300.01153
300.01175
300.01197
300.01219
300.01241
300.01262
300.01284
300.01305
300.01326
300.01348
300.01369
300.0139
300.01411
300.01431
300.01452
300.01472
300.01493
300.01513
300.01533
300.01553
300.01573
300.01594
300.01615
300
300.00002
300.00005
300.0001
300.00018
300.00028
300.00041
300.00056
300.00073
300.00091
300.0011
300.00129
300.00149
300.0017
300.00192
300.00216
300.00241
300.00267
300.00295
300.00325
300.00358
300.00392
300.00428
300.00466
300.00506
300.00547
300.0059
300.00634
300.00679
300.00725
300.00772
300.0082
300.00868
300.00917
300.00966
300.01015
300.01064
300.01114
300.01163
300.01213
300.01262
300.01311
300.0136
300.01408
300.01457
300.01504
300.01552
300.01599
300.01646
300.01692
300.01738
300.01784
300.01829
300.01874
300.01918
300.01962
300.02005
300.02048
300.0209
300.02132
300.02173
300.02214
300.02254
300.02294
300.02333
300.02372
300.02411
300.02449
300.02486
300.02523
300.0256
300.02596
300.02632
300.02667
300.02702
300.02737
300.02771
300.02805
300.02838
300.02871
300.02903
300.02935
300.02967
300.02998
300.03029
300.0306
300.0309
300.0312
300.03149
300.03178
300.03207
300.03235
300.03263
300.03291
300.03318
300.03345
300.03371
300.03398
300.03425
300.03454
300.00008
300.00026
300.00053
300.00089
300.00135
300.00189
300.00251
300.0032
300.00393
300.0047
300.00552
300.00637
300.00725
300.00819
300.00917
300.0102
300.01128
300.0124
300.01356
300.01476
300.01597
300.0172
300.01844
300.01968
300.02091
300.02213
300.02334
300.02453
300.0257
300.02684
300.02795
300.02904
300.03011
300.03114
300.03215
300.03313
300.03408
300.03501
300.03591
300.03678
300.03764
300.03846
300.03927
300.04005
300.04081
300.04155
300.04227
300.04297
300.04365
300.04432
300.04497
300.0456
300.04621
300.04681
300.04739
300.04796
300.04852
300.04906
300.04959
300.0501
300.05061
300.0511
300.05158
300.05205
300.05251
300.05296
300.0534
300.05383
300.05425
300.05466
300.05507
300.05546
300.05585
300.05623
300.0566
300.05696
300.05732
300.05767
300.05801
300.05834
300.05867
300.059
300.05931
300.05962
300.05993
300.06023
300.06052
300.0608
300.06109
300.06136
300.06163
300.0619
300.06216
300.06241
300.06266
300.0629
300.06314
300.06338
300.06362
300.06388
300.00147
300.00308
300.00488
300.00689
300.00915
300.01168
300.0145
300.01761
300.021
300.02461
300.02838
300.03224
300.03612
300.03995
300.04368
300.04728
300.0507
300.05394
300.05699
300.05984
300.06249
300.06496
300.06725
300.06936
300.07131
300.07312
300.07478
300.07632
300.07774
300.07906
300.08028
300.08141
300.08246
300.08344
300.08435
300.0852
300.086
300.08674
300.08744
300.0881
300.08873
300.08931
300.08987
300.09039
300.09089
300.09136
300.09181
300.09223
300.09264
300.09303
300.0934
300.09376
300.0941
300.09442
300.09474
300.09504
300.09533
300.09561
300.09587
300.09613
300.09638
300.09663
300.09686
300.09709
300.09731
300.09752
300.09773
300.09793
300.09812
300.09831
300.09849
300.09867
300.09885
300.09902
300.09918
300.09934
300.0995
300.09965
300.0998
300.09994
300.10008
300.10022
300.10036
300.10049
300.10062
300.10074
300.10086
300.10098
300.1011
300.10121
300.10132
300.10143
300.10153
300.10163
300.10173
300.10183
300.10192
300.10201
300.1021
300.10219
300.00147
300.00298
300.00457
300.00625
300.00805
300.00997
300.01204
300.01425
300.0166
300.01908
300.02167
300.02437
300.02714
300.02997
300.03284
300.03572
300.0386
300.04144
300.04423
300.04697
300.04963
300.0522
300.05467
300.05705
300.05933
300.06149
300.06355
300.06551
300.06736
300.0691
300.07075
300.0723
300.07376
300.07514
300.07643
300.07764
300.07878
300.07986
300.08087
300.08181
300.08271
300.08355
300.08434
300.08508
300.08579
300.08645
300.08708
300.08768
300.08824
300.08878
300.08929
300.08977
300.09024
300.09068
300.0911
300.0915
300.09188
300.09225
300.0926
300.09294
300.09327
300.09358
300.09389
300.09418
300.09446
300.09473
300.09499
300.09524
300.09549
300.09573
300.09596
300.09618
300.0964
300.09661
300.09681
300.09701
300.09721
300.0974
300.09758
300.09776
300.09793
300.0981
300.09827
300.09843
300.09859
300.09874
300.09889
300.09904
300.09918
300.09932
300.09946
300.0996
300.09973
300.09985
300.09998
300.1001
300.10022
300.10034
300.10045
300.10056
300.00009
300.00026
300.0005
300.00081
300.0012
300.00164
300.00214
300.0027
300.00329
300.00393
300.0046
300.0053
300.00603
300.00679
300.00757
300.00837
300.00919
300.01002
300.01087
300.01174
300.01261
300.01349
300.01438
300.01528
300.01617
300.01707
300.01796
300.01885
300.01974
300.02062
300.0215
300.02237
300.02324
300.02409
300.02494
300.02578
300.02661
300.02743
300.02824
300.02904
300.02983
300.0306
300.03137
300.03213
300.03287
300.03361
300.03433
300.03504
300.03574
300.03643
300.0371
300.03777
300.03842
300.03906
300.03969
300.04031
300.04092
300.04152
300.0421
300.04268
300.04325
300.0438
300.04435
300.04488
300.04541
300.04592
300.04643
300.04692
300.04741
300.04789
300.04836
300.04882
300.04928
300.04972
300.05016
300.05059
300.05101
300.05142
300.05183
300.05223
300.05262
300.05301
300.05338
300.05376
300.05412
300.05448
300.05483
300.05518
300.05552
300.05586
300.05619
300.05651
300.05683
300.05714
300.05745
300.05775
300.05805
300.05834
300.05864
300.05895
300
300.00002
300.00005
300.00009
300.00016
300.00025
300.00035
300.00048
300.00063
300.00079
300.00096
300.00115
300.00134
300.00155
300.00176
300.00198
300.00221
300.00245
300.00269
300.00294
300.0032
300.00346
300.00373
300.004
300.00428
300.00456
300.00485
300.00515
300.00545
300.00575
300.00606
300.00637
300.00669
300.00701
300.00733
300.00766
300.00799
300.00832
300.00865
300.00899
300.00933
300.00967
300.01002
300.01037
300.01072
300.01107
300.01142
300.01177
300.01212
300.01248
300.01284
300.01319
300.01355
300.01391
300.01426
300.01462
300.01498
300.01533
300.01569
300.01605
300.0164
300.01675
300.01711
300.01746
300.01781
300.01816
300.01851
300.01886
300.0192
300.01954
300.01989
300.02023
300.02056
300.0209
300.02124
300.02157
300.0219
300.02223
300.02255
300.02288
300.0232
300.02352
300.02384
300.02415
300.02447
300.02478
300.02508
300.02539
300.02569
300.02599
300.02629
300.02659
300.02688
300.02717
300.02746
300.02775
300.02803
300.02832
300.0286
300.0289
300
300
300
300.00001
300.00002
300.00003
300.00005
300.00007
300.0001
300.00013
300.00017
300.00021
300.00026
300.0003
300.00036
300.00041
300.00047
300.00053
300.00059
300.00066
300.00073
300.0008
300.00087
300.00094
300.00102
300.0011
300.00118
300.00126
300.00134
300.00143
300.00152
300.00161
300.00171
300.0018
300.0019
300.002
300.00211
300.00221
300.00232
300.00243
300.00255
300.00266
300.00278
300.0029
300.00303
300.00315
300.00328
300.00341
300.00354
300.00367
300.00381
300.00395
300.00409
300.00423
300.00438
300.00453
300.00467
300.00483
300.00498
300.00513
300.00529
300.00545
300.0056
300.00576
300.00593
300.00609
300.00625
300.00642
300.00659
300.00676
300.00692
300.00709
300.00727
300.00744
300.00761
300.00778
300.00796
300.00813
300.00831
300.00848
300.00866
300.00884
300.00902
300.00919
300.00937
300.00955
300.00973
300.00991
300.01009
300.01027
300.01045
300.01063
300.0108
300.01098
300.01116
300.01134
300.01152
300.0117
300.01188
300.01207
300
300
300
300
300
300
300
300.00001
300.00001
300.00002
300.00002
300.00003
300.00004
300.00005
300.00006
300.00007
300.00008
300.00009
300.00011
300.00012
300.00014
300.00015
300.00017
300.00018
300.0002
300.00022
300.00024
300.00026
300.00028
300.0003
300.00032
300.00034
300.00037
300.00039
300.00042
300.00044
300.00047
300.0005
300.00053
300.00056
300.00059
300.00062
300.00065
300.00068
300.00072
300.00075
300.00079
300.00083
300.00087
300.00091
300.00095
300.00099
300.00104
300.00108
300.00113
300.00117
300.00122
300.00127
300.00132
300.00138
300.00143
300.00148
300.00154
300.0016
300.00165
300.00171
300.00177
300.00184
300.0019
300.00196
300.00203
300.00209
300.00216
300.00223
300.0023
300.00237
300.00244
300.00251
300.00258
300.00266
300.00273
300.00281
300.00289
300.00296
300.00304
300.00312
300.0032
300.00328
300.00336
300.00345
300.00353
300.00361
300.0037
300.00378
300.00387
300.00395
300.00404
300.00413
300.00422
300.00431
300
300
300
300
300
300
300
300
300
300
300
300
300
300.00001
300.00001
300.00001
300.00001
300.00001
300.00002
300.00002
300.00002
300.00002
300.00003
300.00003
300.00003
300.00004
300.00004
300.00004
300.00005
300.00005
300.00006
300.00006
300.00006
300.00007
300.00007
300.00008
300.00009
300.00009
300.0001
300.0001
300.00011
300.00012
300.00012
300.00013
300.00014
300.00015
300.00016
300.00016
300.00017
300.00018
300.00019
300.0002
300.00022
300.00023
300.00024
300.00025
300.00026
300.00028
300.00029
300.0003
300.00032
300.00033
300.00035
300.00036
300.00038
300.0004
300.00042
300.00043
300.00045
300.00047
300.00049
300.00051
300.00053
300.00055
300.00058
300.0006
300.00062
300.00065
300.00067
300.00069
300.00072
300.00075
300.00077
300.0008
300.00083
300.00085
300.00088
300.00091
300.00094
300.00097
300.001
300.00103
300.00107
300.0011
300.00113
300.00117
300.0012
300.00123
300.00127
300.0013
300
300
300
300
300
300
300
300
300
300
300
300
300
300
300
300
300
300
300
300
300
300
300
300
300
300
300.00001
300.00001
300.00001
300.00001
300.00001
300.00001
300.00001
300.00001
300.00001
300.00001
300.00001
300.00001
300.00001
300.00002
300.00002
300.00002
300.00002
300.00002
300.00002
300.00002
300.00003
300.00003
300.00003
300.00003
300.00003
300.00003
300.00004
300.00004
300.00004
300.00004
300.00005
300.00005
300.00005
300.00005
300.00006
300.00006
300.00006
300.00007
300.00007
300.00008
300.00008
300.00008
300.00009
300.00009
300.0001
300.0001
300.00011
300.00011
300.00012
300.00013
300.00013
300.00014
300.00014
300.00015
300.00016
300.00016
300.00017
300.00018
300.00019
300.0002
300.0002
300.00021
300.00022
300.00023
300.00024
300.00025
300.00026
300.00027
300.00028
300.00029
300.0003
300.00031
300.00032
300.00033
300
300
300
300
300
300
300
300
300
300
300
300
300
300
300
300
300
300
300
300
300
300
300
300
300
300
300
300
300
300
300
300
300
300
300
300
300
300
300
300
300
300
300
300
300
300
300
300
300
300
300
300.00001
300.00001
300.00001
300.00001
300.00001
300.00001
300.00001
300.00001
300.00001
300.00001
300.00001
300.00001
300.00001
300.00001
300.00001
300.00001
300.00001
300.00001
300.00002
300.00002
300.00002
300.00002
300.00002
300.00002
300.00002
300.00002
300.00003
300.00003
300.00003
300.00003
300.00003
300.00003
300.00003
300.00004
300.00004
300.00004
300.00004
300.00004
300.00005
300.00005
300.00005
300.00005
300.00006
300.00006
300.00006
300.00006
300.00007
300.00007
300.00007
300
300
300
300
300
300
300
300
300
300
300
300
300
300
300
300
300
300
300
300
300
300
300
300
300
300
300
300
300
300
300
300
300
300
300
300
300
300
300
300
300
300
300
300
300
300
300
300
300
300
300
300
300
300
300
300
300
300
300
300
300
300
300
300
300
300
300
300
300
300
300
300
300
300
300
300
300
300
300
300.00001
300.00001
300.00001
300.00001
300.00001
300.00001
300.00001
300.00001
300.00001
300.00001
300.00001
300.00001
300.00001
300.00001
300.00001
300.00001
300.00001
300.00001
300.00001
300.00002
300.00002
300
300
300
300
300
300
300
300
300
300
300
300
300
300
300
300
300
300
300
300
300
300
300
300
300
300
300
300
300
300
300
300
300
300
300
300
300
300
300
300
300
300
300
300
300
300
300
300
300
300
300
300
300
300
300
300
300
300
300
300
300
300
300
300
300
300
300
300
300
300
300
300
300
300
300
300
300
300
300
300
300
300.00001
300.00001
300.00001
300.00001
300.00001
300.00001
300.00001
300.00001
300.00001
300.00001
300.00001
300.00001
300.00001
300.00001
300.00001
300.00001
300.00001
300.00001
300.00002
300
300
300
300
300
300
300
300
300
300
300
300
300
300
300
300
300
300
300
300
300
300
300
300
300
300
300
300
300
300
300
300
300
300
300
300
300
300
300
300
300
300
300
300
300
300
300
300
300
300
300
300
300
300
300
300.00001
300.00001
300.00001
300.00001
300.00001
300.00001
300.00001
300.00001
300.00001
300.00001
300.00001
300.00001
300.00001
300.00001
300.00001
300.00002
300.00002
300.00002
300.00002
300.00002
300.00002
300.00002
300.00002
300.00003
300.00003
300.00003
300.00003
300.00003
300.00003
300.00003
300.00004
300.00004
300.00004
300.00004
300.00005
300.00005
300.00005
300.00005
300.00005
300.00006
300.00006
300.00006
300.00007
300.00007
300.00007
300
300
300
300
300
300
300
300
300
300
300
300
300
300
300
300
300
300
300
300
300
300
300
300
300
300
300
300
300.00001
300.00001
300.00001
300.00001
300.00001
300.00001
300.00001
300.00001
300.00001
300.00001
300.00001
300.00001
300.00002
300.00002
300.00002
300.00002
300.00002
300.00002
300.00002
300.00003
300.00003
300.00003
300.00003
300.00003
300.00004
300.00004
300.00004
300.00004
300.00004
300.00005
300.00005
300.00005
300.00006
300.00006
300.00006
300.00007
300.00007
300.00007
300.00008
300.00008
300.00009
300.00009
300.0001
300.0001
300.00011
300.00011
300.00012
300.00012
300.00013
300.00014
300.00014
300.00015
300.00016
300.00016
300.00017
300.00018
300.00019
300.00019
300.0002
300.00021
300.00022
300.00023
300.00024
300.00025
300.00026
300.00027
300.00028
300.00029
300.0003
300.00031
300.00032
300.00033
300
300
300
300
300
300
300
300
300
300
300
300
300
300.00001
300.00001
300.00001
300.00001
300.00001
300.00001
300.00002
300.00002
300.00002
300.00002
300.00003
300.00003
300.00003
300.00004
300.00004
300.00005
300.00005
300.00005
300.00006
300.00006
300.00007
300.00007
300.00008
300.00008
300.00009
300.0001
300.0001
300.00011
300.00012
300.00012
300.00013
300.00014
300.00015
300.00015
300.00016
300.00017
300.00018
300.00019
300.0002
300.00021
300.00023
300.00024
300.00025
300.00026
300.00027
300.00029
300.0003
300.00032
300.00033
300.00035
300.00036
300.00038
300.0004
300.00041
300.00043
300.00045
300.00047
300.00049
300.00051
300.00053
300.00055
300.00057
300.0006
300.00062
300.00064
300.00067
300.00069
300.00072
300.00074
300.00077
300.0008
300.00083
300.00085
300.00088
300.00091
300.00094
300.00097
300.001
300.00103
300.00107
300.0011
300.00113
300.00116
300.0012
300.00123
300.00127
300.0013
300
300
300
300
300
300
300
300.00001
300.00001
300.00002
300.00002
300.00003
300.00004
300.00005
300.00006
300.00007
300.00008
300.00009
300.00011
300.00012
300.00014
300.00015
300.00017
300.00018
300.0002
300.00022
300.00024
300.00026
300.00028
300.0003
300.00032
300.00034
300.00037
300.00039
300.00042
300.00044
300.00047
300.0005
300.00052
300.00055
300.00058
300.00062
300.00065
300.00068
300.00072
300.00075
300.00079
300.00083
300.00087
300.00091
300.00095
300.00099
300.00103
300.00108
300.00113
300.00117
300.00122
300.00127
300.00132
300.00138
300.00143
300.00148
300.00154
300.0016
300.00165
300.00171
300.00177
300.00184
300.0019
300.00196
300.00203
300.00209
300.00216
300.00223
300.0023
300.00237
300.00244
300.00251
300.00258
300.00266
300.00273
300.00281
300.00289
300.00296
300.00304
300.00312
300.0032
300.00328
300.00336
300.00345
300.00353
300.00361
300.0037
300.00378
300.00387
300.00395
300.00404
300.00413
300.00422
300.00431
300
300
300
300.00001
300.00002
300.00003
300.00005
300.00007
300.0001
300.00013
300.00017
300.00021
300.00026
300.0003
300.00036
300.00041
300.00047
300.00053
300.00059
300.00066
300.00073
300.0008
300.00087
300.00094
300.00102
300.0011
300.00118
300.00126
300.00134
300.00143
300.00152
300.00161
300.00171
300.0018
300.0019
300.00201
300.00211
300.00222
300.00232
300.00243
300.00255
300.00266
300.00278
300.0029
300.00303
300.00315
300.00328
300.00341
300.00354
300.00368
300.00381
300.00395
300.00409
300.00424
300.00438
300.00453
300.00468
300.00483
300.00498
300.00513
300.00529
300.00545
300.00561
300.00577
300.00593
300.00609
300.00626
300.00642
300.00659
300.00676
300.00693
300.0071
300.00727
300.00744
300.00761
300.00779
300.00796
300.00813
300.00831
300.00849
300.00866
300.00884
300.00902
300.0092
300.00937
300.00955
300.00973
300.00991
300.01009
300.01027
300.01045
300.01063
300.01081
300.01099
300.01117
300.01134
300.01152
300.0117
300.01189
300.01207
300
300.00002
300.00005
300.00009
300.00016
300.00025
300.00035
300.00048
300.00063
300.00079
300.00096
300.00115
300.00134
300.00155
300.00176
300.00199
300.00221
300.00245
300.00269
300.00294
300.0032
300.00346
300.00373
300.004
300.00428
300.00457
300.00486
300.00515
300.00545
300.00575
300.00606
300.00637
300.00669
300.00701
300.00733
300.00766
300.00799
300.00832
300.00866
300.00899
300.00933
300.00968
300.01002
300.01037
300.01072
300.01107
300.01142
300.01177
300.01213
300.01248
300.01284
300.0132
300.01355
300.01391
300.01427
300.01462
300.01498
300.01534
300.01569
300.01605
300.0164
300.01676
300.01711
300.01746
300.01781
300.01816
300.01851
300.01886
300.0192
300.01955