/*--------------------------------*- C++ -*----------------------------------*\
  =========                 |
  \\      /  F ield         | OpenFOAM: The Open Source CFD Toolbox
   \\    /   O peration     | Website:  https://openfoam.org
    \\  /    A nd           | Version:  7
     \\/     M anipulation  |
\*---------------------------------------------------------------------------*/
FoamFile
{
    version     2.0;
    format      ascii;
    class       volVectorField;
    location    "3500/water";
    object      U;
}
// * * * * * * * * * * * * * * * * * * * * * * * * * * * * * * * * * * * * * //

dimensions      [0 1 -1 0 0 0 0];

internalField   nonuniform List<vector> 
54000
(
(0.0090020934 0.00020305973 0.00020444027)
(0.0083186447 0.00023622738 0.00023904411)
(0.0073695241 0.00021363852 0.00021763527)
(0.0063566114 0.00018488016 0.00018965819)
(0.0054486673 0.00015530836 0.00016048633)
(0.0046741594 0.00012529952 0.00013052937)
(0.0040193038 9.7052611e-05 0.00010203017)
(0.0034740067 7.2578999e-05 7.7073287e-05)
(0.0030302461 5.2876127e-05 5.6738328e-05)
(0.0026757323 3.8068151e-05 4.1216512e-05)
(0.0023947254 2.7637704e-05 3.003714e-05)
(0.0021713898 2.0689034e-05 2.2336509e-05)
(0.0019919695 1.6236161e-05 1.7152703e-05)
(0.0018455015 1.3416237e-05 1.3643172e-05)
(0.0017237326 1.158249e-05 1.1179122e-05)
(0.0016206928 1.0304891e-05 9.345581e-06)
(0.0015321593 9.3257907e-06 7.8957156e-06)
(0.0014551546 8.5052963e-06 6.6953103e-06)
(0.0013875459 7.7746336e-06 5.6760582e-06)
(0.0013277612 7.1034285e-06 4.8034865e-06)
(0.001274601 6.4798498e-06 4.0581566e-06)
(0.0012271179 5.8999455e-06 3.4261574e-06)
(0.0011845424 5.3625302e-06 2.8950716e-06)
(0.001146235 4.8670208e-06 2.45263e-06)
(0.0011116558 4.4125992e-06 2.0869765e-06)
(0.0010803434 3.9980124e-06 1.7867445e-06)
(0.0010519002 3.6214604e-06 1.5416117e-06)
(0.0010259819 3.2805931e-06 1.3421853e-06)
(0.001002289 2.9733955e-06 1.179731e-06)
(0.00098056199 2.6979499e-06 1.0463205e-06)
(0.00096057572 2.4519212e-06 9.3658878e-07)
(0.00094213242 2.2325678e-06 8.4693346e-07)
(0.00092505792 2.0373866e-06 7.7316646e-07)
(0.00090920047 1.8640892e-06 7.1184265e-07)
(0.00089442818 1.7104624e-06 6.6046716e-07)
(0.0008806259 1.5743827e-06 6.1707451e-07)
(0.00086769294 1.4538611e-06 5.8005383e-07)
(0.00085554128 1.3470711e-06 5.4811473e-07)
(0.00084409387 1.2523503e-06 5.2023786e-07)
(0.00083328322 1.1681975e-06 4.9562741e-07)
(0.00082305015 1.0932613e-06 4.7365245e-07)
(0.00081334267 1.0262295e-06 4.5378273e-07)
(0.00080411486 9.6586011e-07 4.3554427e-07)
(0.00079532615 9.1131013e-07 4.1864959e-07)
(0.0007869407 8.6191679e-07 4.0290712e-07)
(0.00077892675 8.1708305e-07 3.8816768e-07)
(0.00077125603 7.762769e-07 3.7432057e-07)
(0.0007639033 7.3902562e-07 3.6127456e-07)
(0.00075684598 7.0491526e-07 3.4896399e-07)
(0.00075006373 6.7357558e-07 3.3733177e-07)
(0.00074353822 6.4469377e-07 3.2633746e-07)
(0.00073725294 6.180256e-07 3.1581862e-07)
(0.00073119314 5.9334651e-07 3.0574425e-07)
(0.00072534528 5.7041868e-07 2.9621105e-07)
(0.00071969687 5.4902505e-07 2.8716648e-07)
(0.00071423653 5.2901462e-07 2.7854343e-07)
(0.00070895386 5.1027469e-07 2.7031176e-07)
(0.00070383928 4.9268636e-07 2.6244828e-07)
(0.00069888397 4.7614407e-07 2.5493138e-07)
(0.00069407976 4.6054959e-07 2.4774357e-07)
(0.00068941911 4.4582033e-07 2.4086475e-07)
(0.00068489502 4.3188543e-07 2.3427703e-07)
(0.00068050098 4.1867883e-07 2.279644e-07)
(0.00067623091 4.0614673e-07 2.2191174e-07)
(0.00067207915 3.9423474e-07 2.1610552e-07)
(0.00066804042 3.8289758e-07 2.1053026e-07)
(0.00066410976 3.7209464e-07 2.0517762e-07)
(0.00066028251 3.6179412e-07 2.0003284e-07)
(0.00065655429 3.519624e-07 1.9508288e-07)
(0.00065292099 3.4256895e-07 1.9031843e-07)
(0.00064937872 3.3358594e-07 1.8572865e-07)
(0.00064592384 3.2498743e-07 1.8130597e-07)
(0.00064255288 3.1675107e-07 1.7704026e-07)
(0.00063926261 3.0885609e-07 1.7292468e-07)
(0.00063604992 3.012818e-07 1.6895136e-07)
(0.00063291192 2.9401359e-07 1.6511145e-07)
(0.00062984583 2.8703074e-07 1.6139799e-07)
(0.00062684904 2.8032122e-07 1.5780333e-07)
(0.00062391907 2.7387189e-07 1.5432066e-07)
(0.00062105358 2.6766669e-07 1.509423e-07)
(0.00061825035 2.6169486e-07 1.4766058e-07)
(0.00061550727 2.5594547e-07 1.4446937e-07)
(0.00061282235 2.5040695e-07 1.4135969e-07)
(0.00061019373 2.4506986e-07 1.3832444e-07)
(0.00060761964 2.3991992e-07 1.3535628e-07)
(0.00060509845 2.3494691e-07 1.3244884e-07)
(0.00060262862 2.3013427e-07 1.295974e-07)
(0.00060020873 2.254694e-07 1.2680442e-07)
(0.00059783744 2.2093135e-07 1.2407558e-07)
(0.00059551348 2.1649857e-07 1.2143422e-07)
(0.00059323555 2.1214894e-07 1.1892865e-07)
(0.00059100214 2.0787205e-07 1.1666268e-07)
(0.00058881114 2.0369062e-07 1.1482978e-07)
(0.00058665898 1.9973116e-07 1.1382004e-07)
(0.0005845387 1.9638454e-07 1.1440964e-07)
(0.00058243501 1.9487218e-07 1.1837306e-07)
(0.00058031396 1.9977455e-07 1.3094351e-07)
(0.0005781161 2.2258528e-07 1.6397652e-07)
(0.00057566369 1.9706901e-07 1.5080586e-07)
(0.00056906201 7.8896391e-07 7.5322571e-07)
(0.0095316863 0.0003313754 0.00022336697)
(0.0092716504 0.00041105942 0.00027052342)
(0.0087756651 0.00040317187 0.00026060063)
(0.0081527518 0.00038218754 0.00024252081)
(0.0075302151 0.00035309575 0.00022101125)
(0.0069425889 0.00031541063 0.00019648834)
(0.006391209 0.00027309198 0.00017102969)
(0.0058791845 0.00023030694 0.00014652546)
(0.0054120202 0.00019001855 0.00012410997)
(0.0049926512 0.00015423459 0.00010436627)
(0.004620592 0.00012408347 8.7479017e-05)
(0.0042931332 9.9809402e-05 7.3327496e-05)
(0.0040063965 8.0956424e-05 6.1601504e-05)
(0.0037559538 6.6672211e-05 5.1918794e-05)
(0.0035372541 5.5985801e-05 4.3907444e-05)
(0.003345947 4.7992056e-05 3.7246645e-05)
(0.0031780884 4.194171e-05 3.1677529e-05)
(0.0030302311 3.7262446e-05 2.6997921e-05)
(0.0028994324 3.3540997e-05 2.3051138e-05)
(0.0027832152 3.0490245e-05 1.9714593e-05)
(0.0026795075 2.7915735e-05 1.6890543e-05)
(0.0025865783 2.5687841e-05 1.4499382e-05)
(0.002502978 2.3720893e-05 1.2475016e-05)
(0.0024274871 2.195843e-05 1.0761726e-05)
(0.0023590736 2.0362992e-05 9.3122325e-06)
(0.0022968589 1.8909453e-05 8.0861294e-06)
(0.0022400906 1.7580768e-05 7.0489626e-06)
(0.0021881216 1.6364898e-05 6.1714982e-06)
(0.0021403932 1.5251962e-05 5.4283141e-06)
(0.0020964214 1.423385e-05 4.7973501e-06)
(0.0020557868 1.330304e-05 4.2604811e-06)
(0.0020181236 1.2451987e-05 3.8027037e-06)
(0.0019831119 1.1673908e-05 3.4109602e-06)
(0.0019504718 1.0962754e-05 3.0744202e-06)
(0.0019199589 1.0312853e-05 2.7842597e-06)
(0.0018913593 9.7188327e-06 2.5331796e-06)
(0.0018644851 9.1756446e-06 2.3150742e-06)
(0.0018391716 8.6785727e-06 2.1248315e-06)
(0.0018152735 8.2232437e-06 1.9581831e-06)
(0.0017926629 7.80562e-06 1.8115672e-06)
(0.0017712268 7.4219979e-06 1.682011e-06)
(0.001750865 7.0689367e-06 1.5670703e-06)
(0.0017314886 6.7432694e-06 1.464743e-06)
(0.0017130186 6.4422716e-06 1.3732751e-06)
(0.0016953848 6.1635568e-06 1.2911589e-06)
(0.0016785241 5.9049777e-06 1.2171191e-06)
(0.00166238 5.6646099e-06 1.1500838e-06)
(0.0016469019 5.4407252e-06 1.0891486e-06)
(0.001632044 5.2317779e-06 1.0335531e-06)
(0.0016177648 5.036385e-06 9.8265378e-07)
(0.0016040271 4.8533225e-06 9.3589488e-07)
(0.0015907965 4.6815634e-06 8.9273715e-07)
(0.0015780424 4.5201565e-06 8.5278736e-07)
(0.0015657364 4.3681533e-06 8.1577049e-07)
(0.0015538526 4.2246823e-06 7.8138472e-07)
(0.0015423672 4.0890599e-06 7.4934534e-07)
(0.0015312583 3.9607292e-06 7.1941255e-07)
(0.0015205058 3.8391511e-06 6.9138759e-07)
(0.0015100909 3.7238117e-06 6.6509374e-07)
(0.0014999963 3.6142427e-06 6.4038034e-07)
(0.0014902061 3.5100296e-06 6.1710921e-07)
(0.0014807053 3.4107985e-06 5.951599e-07)
(0.00147148 3.3162112e-06 5.744287e-07)
(0.0014625175 3.2259584e-06 5.5481463e-07)
(0.0014538055 3.1397546e-06 5.3623609e-07)
(0.0014453328 3.0573347e-06 5.186117e-07)
(0.0014370889 2.9784704e-06 5.0187844e-07)
(0.0014290637 2.9029575e-06 4.8596888e-07)
(0.001421248 2.830603e-06 4.7082396e-07)
(0.001413633 2.7612175e-06 4.5639273e-07)
(0.0014062104 2.6946329e-06 4.4262784e-07)
(0.0013989723 2.6306897e-06 4.2948813e-07)
(0.0013919116 2.5692451e-06 4.1692967e-07)
(0.0013850211 2.5101621e-06 4.0492037e-07)
(0.0013782945 2.4533176e-06 3.9342544e-07)
(0.0013717253 2.3985956e-06 3.8241128e-07)
(0.0013653078 2.3458839e-06 3.7185137e-07)
(0.0013590364 2.2950856e-06 3.61718e-07)
(0.0013529058 2.2461057e-06 3.5198421e-07)
(0.001346911 2.1988522e-06 3.4262643e-07)
(0.0013410472 2.1532427e-06 3.336209e-07)
(0.0013353099 2.1091963e-06 3.2494529e-07)
(0.001329695 2.0666369e-06 3.1657804e-07)
(0.0013241983 2.0254903e-06 3.0850029e-07)
(0.001318816 1.9856742e-06 3.0068939e-07)
(0.0013135446 1.9471149e-06 2.9312943e-07)
(0.0013083808 1.909726e-06 2.8580573e-07)
(0.0013033213 1.8734245e-06 2.7870228e-07)
(0.0012983632 1.8381147e-06 2.7181614e-07)
(0.0012935038 1.8037139e-06 2.6515415e-07)
(0.0012887402 1.7701702e-06 2.5874372e-07)
(0.0012840698 1.7375327e-06 2.526501e-07)
(0.0012794889 1.7061208e-06 2.4701467e-07)
(0.0012749925 1.6769091e-06 2.4211428e-07)
(0.001270572 1.6524671e-06 2.3851858e-07)
(0.0012662098 1.6393327e-06 2.3765997e-07)
(0.0012618709 1.6545763e-06 2.4458204e-07)
(0.0012574959 1.7463713e-06 2.7712399e-07)
(0.0012529717 2.0376718e-06 2.652638e-07)
(0.0012433358 2.951482e-06 1.3525328e-06)
(0.0095221617 0.00021179965 0.00022180581)
(0.009269783 0.00029872516 0.00026628967)
(0.0088657772 0.00031669844 0.00025526743)
(0.0083755729 0.000317438 0.00023864265)
(0.0078888426 0.00030841043 0.00021987851)
(0.0074276349 0.00028848207 0.00019850458)
(0.006988258 0.00026048391 0.00017617916)
(0.0065698164 0.00022855168 0.00015444521)
(0.0061756011 0.00019596771 0.00013413534)
(0.0058087146 0.00016504408 0.00011567593)
(0.0054706295 0.00013728621 9.9270838e-05)
(0.0051615551 0.00011345265 8.4947831e-05)
(0.0048808654 9.3684508e-05 7.2600738e-05)
(0.0046272998 7.7712988e-05 6.2044901e-05)
(0.0043991196 6.5057025e-05 5.3064543e-05)
(0.0041942886 5.5163888e-05 4.544363e-05)
(0.0040106431 4.7493347e-05 3.8982754e-05)
(0.0038460219 4.1561377e-05 3.3506381e-05)
(0.0036983537 3.6958195e-05 2.8864075e-05)
(0.0035657105 3.3351176e-05 2.4928487e-05)
(0.0034463343 3.0479502e-05 2.1592135e-05)
(0.003338646 2.8144769e-05 1.8764099e-05)
(0.003241243 2.6200156e-05 1.6367138e-05)
(0.0031528887 2.4539753e-05 1.4335369e-05)
(0.0030724986 2.3088866e-05 1.261249e-05)
(0.0029991252 2.1796112e-05 1.1150135e-05)
(0.0029319421 2.0626904e-05 9.9064817e-06)
(0.0028702292 1.9558163e-05 8.8458145e-06)
(0.0028133589 1.8574036e-05 7.9385377e-06)
(0.0027607855 1.7663622e-05 7.1598228e-06)
(0.0027120345 1.6818832e-05 6.4890351e-06)
(0.0026666927 1.6033066e-05 5.9090202e-06)
(0.0026243991 1.5301095e-05 5.405272e-06)
(0.0025848382 1.4618819e-05 4.9656529e-06)
(0.0025477347 1.3982713e-05 4.5801146e-06)
(0.0025128472 1.3389542e-05 4.2403279e-06)
(0.002479964 1.2836282e-05 3.9393558e-06)
(0.0024488994 1.2320059e-05 3.6714262e-06)
(0.0024194896 1.1838145e-05 3.431726e-06)
(0.00239159 1.138794e-05 3.2162512e-06)
(0.0023650729 1.0966986e-05 3.0216602e-06)
(0.0023398248 1.0572998e-05 2.845173e-06)
(0.0023157449 1.0203873e-05 2.6844748e-06)
(0.0022927433 9.8575803e-06 2.5375953e-06)
(0.0022707398 9.532216e-06 2.4028638e-06)
(0.002249662 9.2260281e-06 2.278867e-06)
(0.0022294453 8.9374184e-06 2.1643996e-06)
(0.0022100312 8.6649296e-06 2.0584381e-06)
(0.0021913666 8.407238e-06 1.960101e-06)
(0.0021734038 8.1631545e-06 1.8686318e-06)
(0.0021560989 7.9316222e-06 1.7833679e-06)
(0.0021394122 7.7117241e-06 1.7037079e-06)
(0.0021233074 7.5026022e-06 1.6291515e-06)
(0.0021077512 7.303379e-06 1.5592838e-06)
(0.0020927129 7.1131877e-06 1.4937203e-06)
(0.0020781645 6.931416e-06 1.4321051e-06)
(0.0020640799 6.757605e-06 1.3741135e-06)
(0.0020504351 6.5912616e-06 1.3194617e-06)
(0.0020372075 6.4318782e-06 1.2678948e-06)
(0.0020243766 6.2790053e-06 1.2191871e-06)
(0.0020119231 6.13224e-06 1.1731319e-06)
(0.001999829 5.9912198e-06 1.1295429e-06)
(0.0019880776 5.8556108e-06 1.0882503e-06)
(0.0019766531 5.7251034e-06 1.0490966e-06)
(0.0019655411 5.5994073e-06 1.0119383e-06)
(0.0019547276 5.4782435e-06 9.7664588e-07)
(0.0019441999 5.3613885e-06 9.4310115e-07)
(0.0019339458 5.2486463e-06 9.1118953e-07)
(0.0019239539 5.1398186e-06 8.8080775e-07)
(0.0019142135 5.034703e-06 8.5186046e-07)
(0.0019047144 4.9331189e-06 8.2425928e-07)
(0.001895447 4.8348994e-06 7.9792424e-07)
(0.0018864023 4.7398898e-06 7.7277993e-07)
(0.0018775718 4.6479421e-06 7.4875638e-07)
(0.0018689473 4.5589225e-06 7.2578832e-07)
(0.0018605211 4.4726996e-06 7.0381437e-07)
(0.0018522861 4.3891527e-06 6.8277817e-07)
(0.0018442353 4.3081696e-06 6.6262529e-07)
(0.0018363621 4.2296384e-06 6.4330691e-07)
(0.0018286604 4.1534586e-06 6.2477639e-07)
(0.0018211241 4.0795297e-06 6.0698788e-07)
(0.0018137478 4.0077535e-06 5.8990098e-07)
(0.0018065261 3.9380371e-06 5.7347364e-07)
(0.001799454 3.8702802e-06 5.5766726e-07)
(0.0017925266 3.8043823e-06 5.4244786e-07)
(0.0017857396 3.7402371e-06 5.2777867e-07)
(0.0017790885 3.6777268e-06 5.1362898e-07)
(0.0017725695 3.6167263e-06 4.9997081e-07)
(0.0017661787 3.5571074e-06 4.8677578e-07)
(0.0017599128 3.4987606e-06 4.7402574e-07)
(0.0017537682 3.4416539e-06 4.6170942e-07)
(0.0017477416 3.3859618e-06 4.4983549e-07)
(0.0017418294 3.3323811e-06 4.3844368e-07)
(0.0017360272 3.2827916e-06 4.2764725e-07)
(0.0017303281 3.2417762e-06 4.1776825e-07)
(0.0017247202 3.2200404e-06 4.0998997e-07)
(0.001719183 3.2421551e-06 4.0984941e-07)
(0.001713691 3.364343e-06 4.4114439e-07)
(0.0017081999 3.7072197e-06 4.7353416e-07)
(0.0016974804 4.4611192e-06 1.8634996e-06)
(0.0095012861 0.00013951169 0.00022248511)
(0.0092133349 0.00022408324 0.00026709763)
(0.0088018509 0.00025700941 0.00025529581)
(0.0083306071 0.00026690691 0.0002382081)
(0.0078754299 0.00026502159 0.00021939837)
(0.0074527063 0.00025295651 0.00019823245)
(0.0070564396 0.00023295893 0.00017634609)
(0.0066827538 0.00020836345 0.0001552305)
(0.006331873 0.00018203354 0.00013558338)
(0.0060047052 0.00015603739 0.00011769036)
(0.0057015056 0.00013180401 0.00010166909)
(0.0054220192 0.00011020725 8.7524314e-05)
(0.0051656909 9.16319e-05 7.5171986e-05)
(0.0049316845 7.6091186e-05 6.4472618e-05)
(0.0047188814 6.3363142e-05 5.526115e-05)
(0.0045259349 5.310494e-05 4.7366821e-05)
(0.0043513547 4.4932757e-05 4.0624899e-05)
(0.0041935865 3.847136e-05 3.4883032e-05)
(0.0040510752 3.3381245e-05 3.0003995e-05)
(0.0039223115 2.937051e-05 2.5866182e-05)
(0.0038058643 2.6197262e-05 2.2362868e-05)
(0.0037004012 2.3666731e-05 1.9400962e-05)
(0.0036047 2.1625758e-05 1.6899611e-05)
(0.0035176529 1.9956328e-05 1.4788823e-05)
(0.0034382652 1.8569048e-05 1.3008105e-05)
(0.0033656513 1.7397362e-05 1.1504745e-05)
(0.0032990266 1.6392002e-05 1.0233523e-05)
(0.0032376995 1.551624e-05 9.1565341e-06)
(0.0031810636 1.4743887e-05 8.2421123e-06)
(0.0031285885 1.4056151e-05 7.463575e-06)
(0.0030798115 1.3438894e-05 6.7985202e-06)
(0.0030343294 1.288115e-05 6.2282228e-06)
(0.0029917905 1.2374495e-05 5.7369824e-06)
(0.0029518882 1.191242e-05 5.3116663e-06)
(0.0029143553 1.1489692e-05 4.9413541e-06)
(0.0028789586 1.1101929e-05 4.617001e-06)
(0.0028454946 1.0745381e-05 4.3311216e-06)
(0.0028137847 1.0416775e-05 4.0775282e-06)
(0.0027836727 1.0113219e-05 3.8511084e-06)
(0.0027550209 9.8321223e-06 3.6476455e-06)
(0.0027277081 9.5711601e-06 3.4636648e-06)
(0.002701627 9.3282506e-06 3.2963013e-06)
(0.0026766823 9.1015145e-06 3.1431913e-06)
(0.0026527895 8.8892432e-06 3.0023828e-06)
(0.0026298729 8.689891e-06 2.8722564e-06)
(0.0026078647 8.5020887e-06 2.7514709e-06)
(0.002586704 8.3246156e-06 2.6389098e-06)
(0.0025663358 8.1563962e-06 2.5336421e-06)
(0.0025467102 7.9964767e-06 2.4348843e-06)
(0.002527782 7.8440265e-06 2.3419789e-06)
(0.0025095101 7.698338e-06 2.2543622e-06)
(0.0024918566 7.5588087e-06 2.1715448e-06)
(0.0024747871 7.4248974e-06 2.093112e-06)
(0.0024582699 7.2960213e-06 2.0187207e-06)
(0.0024422756 7.1714394e-06 1.9480685e-06)
(0.0024267775 7.0509285e-06 1.8808989e-06)
(0.0024117506 6.9343769e-06 1.8169522e-06)
(0.0023971715 6.82149e-06 1.7560027e-06)
(0.0023830185 6.7119549e-06 1.6978527e-06)
(0.0023692714 6.6055363e-06 1.642329e-06)
(0.0023559116 6.5020431e-06 1.5892721e-06)
(0.0023429214 6.4013083e-06 1.5385378e-06)
(0.0023302844 6.30318e-06 1.4899943e-06)
(0.0023179851 6.2075249e-06 1.4435168e-06)
(0.0023060089 6.1142032e-06 1.3989938e-06)
(0.0022943424 6.0230674e-06 1.3563257e-06)
(0.0022829727 5.9340567e-06 1.315416e-06)
(0.0022718877 5.8471275e-06 1.2761707e-06)
(0.002261076 5.7622036e-06 1.238502e-06)
(0.0022505267 5.6791994e-06 1.2023301e-06)
(0.0022402296 5.5980421e-06 1.1675827e-06)
(0.0022301752 5.5186727e-06 1.1341879e-06)
(0.0022203542 5.4410297e-06 1.1020804e-06)
(0.002210758 5.3650623e-06 1.0711991e-06)
(0.0022013784 5.2907175e-06 1.0414844e-06)
(0.0021922076 5.2179484e-06 1.0128824e-06)
(0.0021832381 5.1467104e-06 9.8533807e-07)
(0.0021744628 5.0769589e-06 9.5880298e-07)
(0.0021658752 5.0086494e-06 9.332299e-07)
(0.0021574688 4.9417443e-06 9.0857407e-07)
(0.0021492375 4.8761985e-06 8.8479088e-07)
(0.0021411756 4.8119658e-06 8.6183934e-07)
(0.0021332776 4.7489992e-06 8.3967979e-07)
(0.0021255383 4.6872387e-06 8.1827129e-07)
(0.0021179527 4.6266216e-06 7.9757795e-07)
(0.0021105161 4.5670666e-06 7.7756108e-07)
(0.0021032242 4.5084816e-06 7.5818452e-07)
(0.0020960727 4.4507544e-06 7.3941075e-07)
(0.0020890577 4.3937748e-06 7.2120222e-07)
(0.0020821756 4.3374549e-06 7.0352068e-07)
(0.002075423 4.2818089e-06 6.8632116e-07)
(0.0020687967 4.2271306e-06 6.6956208e-07)
(0.0020622937 4.1743519e-06 6.5320457e-07)
(0.002055911 4.1258144e-06 6.3726156e-07)
(0.0020496453 4.0868275e-06 6.2198394e-07)
(0.0020434926 4.0687762e-06 6.087471e-07)
(0.0020374483 4.094876e-06 6.0452106e-07)
(0.0020315149 4.2094244e-06 6.3987749e-07)
(0.0020256647 4.4797469e-06 7.1688373e-07)
(0.0020144539 4.9057746e-06 2.269526e-06)
(0.0094902877 9.6726607e-05 0.00022289229)
(0.00917661 0.00016632333 0.00026788105)
(0.0087449456 0.00019969046 0.00025550648)
(0.0082664657 0.00021101604 0.00023762681)
(0.00781215 0.0002109939 0.0002181603)
(0.0073950862 0.0002028236 0.00019646328)
(0.0070087986 0.00018827265 0.00017418493)
(0.006648835 0.00016968865 0.0001528463)
(0.0063142174 0.00014929331 0.00013312182)
(0.0060045996 0.00012875288 0.0001152379)
(0.0057192201 0.00010923292 9.9256791e-05)
(0.0054570682 9.1490072e-05 8.514891e-05)
(0.0052170782 7.5923399e-05 7.2816211e-05)
(0.0049981259 6.264333e-05 6.2119133e-05)
(0.0047989841 5.1561151e-05 5.2900048e-05)
(0.0046183234 4.2472276e-05 4.4997976e-05)
(0.0044547458 3.5118725e-05 3.8256897e-05)
(0.0043068267 2.9230543e-05 3.2530442e-05)
(0.0041731526 2.4550832e-05 2.7684339e-05)
(0.0040523509 2.0849111e-05 2.3597362e-05)
(0.0039431142 1.7926912e-05 2.0161345e-05)
(0.0038442168 1.5618598e-05 1.7280681e-05)
(0.0037545253 1.3789364e-05 1.4871531e-05)
(0.0036730042 1.2331758e-05 1.2860862e-05)
(0.0035987172 1.1161539e-05 1.1185211e-05)
(0.0035308246 1.0213367e-05 9.7889731e-06)
(0.0034685786 9.4380826e-06 8.6250705e-06)
(0.0034113173 8.7971281e-06 7.6543149e-06)
(0.0033584589 8.262721e-06 6.8439401e-06)
(0.0033094933 7.8140816e-06 6.1664548e-06)
(0.0032639753 7.4348238e-06 5.5988445e-06)
(0.0032215172 7.1121297e-06 5.1219278e-06)
(0.0031817817 6.8360957e-06 4.719729e-06)
(0.0031444758 6.59902e-06 4.3789741e-06)
(0.0031093448 6.3947806e-06 4.0886819e-06)
(0.0030761678 6.2184054e-06 3.8397976e-06)
(0.0030447526 6.0657973e-06 3.6248783e-06)
(0.003014932 5.9335275e-06 3.4378178e-06)
(0.0029865602 5.8186969e-06 3.2736186e-06)
(0.0029595097 5.7188193e-06 3.1282051e-06)
(0.002933669 5.6317492e-06 2.9982621e-06)
(0.0029089401 5.5556273e-06 2.8810975e-06)
(0.0028852364 5.4888237e-06 2.774534e-06)
(0.0028624815 5.4299132e-06 2.6768107e-06)
(0.0028406075 5.3776431e-06 2.5865058e-06)
(0.0028195538 5.3309235e-06 2.502473e-06)
(0.0027992664 5.2888084e-06 2.4237894e-06)
(0.0027796963 5.250482e-06 2.3497107e-06)
(0.0027607998 5.2152428e-06 2.2796384e-06)
(0.002742537 5.1824982e-06 2.2130846e-06)
(0.0027248717 5.1517672e-06 2.1496551e-06)
(0.0027077708 5.1226672e-06 2.089023e-06)
(0.0026912041 5.0948945e-06 2.0309204e-06)
(0.0026751435 5.0680869e-06 1.9751363e-06)
(0.0026595636 5.0410652e-06 1.9215394e-06)
(0.0026444411 5.0142593e-06 1.8699671e-06)
(0.002629754 4.9880174e-06 1.8202517e-06)
(0.0026154815 4.9620713e-06 1.7722796e-06)
(0.0026016045 4.9361406e-06 1.7259615e-06)
(0.0025881054 4.9100838e-06 1.6812155e-06)
(0.0025749674 4.8838323e-06 1.6379656e-06)
(0.002562175 4.857339e-06 1.5961457e-06)
(0.0025497136 4.8305808e-06 1.5556927e-06)
(0.0025375693 4.8035399e-06 1.516549e-06)
(0.0025257292 4.7761756e-06 1.4786606e-06)
(0.002514181 4.7483836e-06 1.4419863e-06)
(0.0025029134 4.7202745e-06 1.4064831e-06)
(0.0024919153 4.6919135e-06 1.3721024e-06)
(0.0024811765 4.6632898e-06 1.3387965e-06)
(0.002470687 4.6344008e-06 1.3065289e-06)
(0.0024604377 4.6052671e-06 1.2752594e-06)
(0.0024504197 4.5759095e-06 1.2449542e-06)
(0.0024406247 4.5463473e-06 1.2155766e-06)
(0.0024310448 4.5166021e-06 1.1870933e-06)
(0.0024216723 4.4866958e-06 1.159473e-06)
(0.0024125001 4.4566515e-06 1.1326851e-06)
(0.0024035213 4.4264895e-06 1.106697e-06)
(0.0023947295 4.396229e-06 1.0814825e-06)
(0.0023861184 4.3658884e-06 1.0570129e-06)
(0.0023776821 4.3354856e-06 1.0332598e-06)
(0.0023694149 4.3050326e-06 1.0101957e-06)
(0.0023613115 4.274534e-06 9.8779517e-07)
(0.0023533667 4.2439921e-06 9.6603066e-07)
(0.0023455757 4.2133966e-06 9.448756e-07)
(0.0023379338 4.1827212e-06 9.2429977e-07)
(0.0023304365 4.1519257e-06 9.0427578e-07)
(0.0023230798 4.1209537e-06 8.8477258e-07)
(0.0023158598 4.0897246e-06 8.6575233e-07)
(0.0023087726 4.0581563e-06 8.4717274e-07)
(0.002301815 4.0261906e-06 8.2898052e-07)
(0.0022949838 3.9938741e-06 8.1110664e-07)
(0.0022882766 3.9615292e-06 7.9346213e-07)
(0.002281691 3.9300757e-06 7.7594368e-07)
(0.0022752261 3.9016896e-06 7.5847834e-07)
(0.002268882 3.8809382e-06 7.4124668e-07)
(0.0022626608 3.8766474e-06 7.2572686e-07)
(0.0022565686 3.9043032e-06 7.1957951e-07)
(0.0022506189 3.9866535e-06 7.5579969e-07)
(0.0022447715 4.1390976e-06 8.4931701e-07)
(0.002233564 4.2832234e-06 2.4122102e-06)
(0.0094843561 6.6886586e-05 0.00022303624)
(0.0091549219 0.00011904886 0.00026838771)
(0.0087072816 0.00014772496 0.00025588053)
(0.0082191888 0.00015892952 0.00023765677)
(0.0077602858 0.00016026049 0.00021787142)
(0.0073412804 0.00015505102 0.00019586613)
(0.0069552494 0.00014481701 0.00017327438)
(0.0065978366 0.00013121474 0.00015165024)
(0.0062677954 0.00011592881 0.00013169211)
(0.0059642872 0.00010028521 0.0001136244)
(0.0056860598 8.5214432e-05 9.7497523e-05)
(0.0054316726 7.1330408e-05 8.3272196e-05)
(0.0051997008 5.8984297e-05 7.0844884e-05)
(0.0049887459 4.8311753e-05 6.0073374e-05)
(0.0047973943 3.9291582e-05 5.079889e-05)
(0.0046242055 3.1804352e-05 4.2859902e-05)
(0.0044677269 2.5679086e-05 3.6099808e-05)
(0.0043265179 2.0725785e-05 3.0371292e-05)
(0.0041991724 1.6756343e-05 2.5538702e-05)
(0.004084339 1.3596837e-05 2.1479083e-05)
(0.0039807371 1.1093753e-05 1.8082323e-05)
(0.0038871692 9.1161618e-06 1.525079e-05)
(0.0038025288 7.5553775e-06 1.2898647e-05)
(0.003725804 6.3231326e-06 1.0950987e-05)
(0.0036560786 5.3488186e-06 9.3426778e-06)
(0.0035925304 4.5751799e-06 8.0166129e-06)
(0.0035344253 3.9620991e-06 6.9239478e-06)
(0.0034811131 3.4726271e-06 6.0250724e-06)
(0.0034320221 3.0815203e-06 5.2862643e-06)
(0.0033866501 2.7702768e-06 4.6792099e-06)
(0.0033445586 2.5236739e-06 4.1805211e-06)
(0.0033053662 2.3295869e-06 3.7707527e-06)
(0.0032687419 2.1784972e-06 3.4337457e-06)
(0.0032343982 2.0629052e-06 3.1561105e-06)
(0.0032020863 1.9768089e-06 2.9267976e-06)
(0.0031715907 1.9153171e-06 2.7367038e-06)
(0.0031427248 1.874379e-06 2.5783543e-06)
(0.0031153267 1.8506046e-06 2.445629e-06)
(0.0030892563 1.8411239e-06 2.3335228e-06)
(0.0030643915 1.8434974e-06 2.237967e-06)
(0.003040626 1.8556435e-06 2.1556635e-06)
(0.0030178671 1.8757791e-06 2.0839515e-06)
(0.0029960335 1.9023807e-06 2.0206942e-06)
(0.0029750538 1.9341332e-06 1.9641816e-06)
(0.0029548648 1.9699154e-06 1.9130524e-06)
(0.0029354109 2.0087625e-06 1.8662268e-06)
(0.0029166424 2.0498575e-06 1.8228531e-06)
(0.0028985148 2.0925102e-06 1.7822577e-06)
(0.0028809885 2.1361387e-06 1.7439144e-06)
(0.0028640277 2.1802722e-06 1.7074103e-06)
(0.0028475999 2.2245519e-06 1.6724142e-06)
(0.0028316758 2.2687606e-06 1.6386553e-06)
(0.0028162284 2.3128929e-06 1.6058724e-06)
(0.0028012324 2.357079e-06 1.5738229e-06)
(0.0027866658 2.3978705e-06 1.5431885e-06)
(0.0027725089 2.436235e-06 1.5136864e-06)
(0.0027587418 2.4734389e-06 1.4848886e-06)
(0.002745346 2.5095332e-06 1.4567022e-06)
(0.002732305 2.5443504e-06 1.4291173e-06)
(0.0027196032 2.5777721e-06 1.4021112e-06)
(0.0027072261 2.609725e-06 1.375664e-06)
(0.0026951602 2.6401654e-06 1.3497566e-06)
(0.0026833928 2.6690893e-06 1.3243748e-06)
(0.0026719116 2.6965043e-06 1.2995091e-06)
(0.0026607054 2.7223727e-06 1.2751525e-06)
(0.0026497635 2.7463559e-06 1.2513139e-06)
(0.002639076 2.7689079e-06 1.2279778e-06)
(0.0026286333 2.7901464e-06 1.205129e-06)
(0.0026184262 2.8099925e-06 1.18276e-06)
(0.0026084461 2.8284305e-06 1.160871e-06)
(0.0025986849 2.8454922e-06 1.1394493e-06)
(0.0025891348 2.8612176e-06 1.118491e-06)
(0.0025797885 2.8756506e-06 1.0979865e-06)
(0.002570639 2.8888311e-06 1.0779292e-06)
(0.0025616795 2.9008067e-06 1.0583095e-06)
(0.0025529038 2.9116206e-06 1.0391189e-06)
(0.0025443058 2.9213127e-06 1.0203478e-06)
(0.0025358796 2.92993e-06 1.0019892e-06)
(0.0025276198 2.937506e-06 9.8403195e-07)
(0.002519521 2.9440774e-06 9.6646559e-07)
(0.0025115783 2.9496802e-06 9.4927852e-07)
(0.0025037869 2.9543367e-06 9.3246204e-07)
(0.0024961421 2.9580662e-06 9.1599994e-07)
(0.0024886396 2.9608805e-06 8.9988015e-07)
(0.0024812752 2.9627723e-06 8.8408543e-07)
(0.002474045 2.9637209e-06 8.6859439e-07)
(0.0024669452 2.963687e-06 8.5338151e-07)
(0.0024599723 2.9626108e-06 8.3841422e-07)
(0.0024531231 2.9604301e-06 8.2364396e-07)
(0.0024463945 2.9570955e-06 8.0900272e-07)
(0.0024397839 2.9526492e-06 7.9439838e-07)
(0.0024332895 2.9473499e-06 7.7969383e-07)
(0.0024269099 2.9419113e-06 7.6470888e-07)
(0.0024206457 2.9379201e-06 7.4926012e-07)
(0.0024144993 2.9384183e-06 7.333655e-07)
(0.0024084767 2.9484954e-06 7.1826407e-07)
(0.0024025877 2.9751248e-06 7.1113322e-07)
(0.002396846 3.0234602e-06 7.4331371e-07)
(0.0023911946 3.0808289e-06 8.304665e-07)
(0.0023803644 3.0574252e-06 2.2999438e-06)
(0.0094810492 4.4090136e-05 0.00022308885)
(0.0091422796 7.9975482e-05 0.00026874495)
(0.0086839084 0.00010160921 0.00025628771)
(0.0081880903 0.00011101591 0.00023793456)
(0.0077246858 0.00011275118 0.00021798622)
(0.0073029895 0.00010953687 0.00019578738)
(0.0069155191 0.00010266029 0.00017296032)
(0.0065579578 9.3267237e-05 0.0001510852)
(0.006229001 8.2539595e-05 0.00013089045)
(0.005927585 7.1446834e-05 0.00011261412)
(0.0056522063 6.067336e-05 9.6309239e-05)
(0.0054012005 5.0670808e-05 8.1936268e-05)
(0.0051729477 4.1706608e-05 6.9390832e-05)
(0.004965887 3.3898116e-05 5.8529097e-05)
(0.0047784814 2.7249954e-05 4.9189878e-05)
(0.0046092054 2.1693072e-05 4.1208773e-05)
(0.0044565535 1.7117437e-05 3.4426143e-05)
(0.0043190553 1.339552e-05 2.8691659e-05)
(0.0041952917 1.0397811e-05 2.3866804e-05)
(0.0040839086 8.0023318e-06 1.9826011e-05)
(0.0039836292 6.0997696e-06 1.6456861e-05)
(0.0038932634 4.5956611e-06 1.3659715e-05)
(0.0038117126 3.4106717e-06 1.1347013e-05)
(0.0037379734 2.4799281e-06 9.4422918e-06)
(0.0036711359 1.7515104e-06 7.879089e-06)
(0.0036103859 1.1749038e-06 6.6010326e-06)
(0.0035549935 7.2233909e-07 5.55612e-06)
(0.0035043108 3.7342444e-07 4.70607e-06)
(0.0034577717 1.0569678e-07 4.0163445e-06)
(0.0034148763 -9.90896e-08 3.4574132e-06)
(0.0033751872 -2.5333539e-07 3.0054948e-06)
(0.0033383243 -3.6640028e-07 2.6409743e-06)
(0.0033039576 -4.4577938e-07 2.3475726e-06)
(0.0032718009 -4.9748394e-07 2.1118265e-06)
(0.0032416065 -5.2634663e-07 1.9226414e-06)
(0.0032131599 -5.3630944e-07 1.7709148e-06)
(0.0031862758 -5.3064153e-07 1.649203e-06)
(0.0031607936 -5.1206282e-07 1.5514415e-06)
(0.0031365743 -4.8287293e-07 1.4727102e-06)
(0.0031134976 -4.4500875e-07 1.4090333e-06)
(0.0030914586 -4.0011282e-07 1.3572054e-06)
(0.0030703663 -3.4958064e-07 1.3146565e-06)
(0.0030501409 -2.945955e-07 1.279332e-06)
(0.0030307129 -2.3617078e-07 1.2495914e-06)
(0.0030120207 -1.7516634e-07 1.2241406e-06)
(0.0029940105 -1.1232137e-07 1.2019521e-06)
(0.0029766343 -4.8268184e-08 1.1822231e-06)
(0.0029598495 1.6450547e-08 1.1643218e-06)
(0.0029436181 8.1355954e-08 1.1477528e-06)
(0.002927906 1.4602543e-07 1.1321255e-06)
(0.0029126825 2.1005846e-07 1.1171187e-06)
(0.0028979201 2.7304984e-07 1.1024389e-06)
(0.0028835935 3.3454077e-07 1.0876605e-06)
(0.0028696773 3.9432294e-07 1.0722025e-06)
(0.0028561514 4.5704904e-07 1.059009e-06)
(0.0028429997 5.2060039e-07 1.0472574e-06)
(0.0028302035 5.8225243e-07 1.0356081e-06)
(0.0028177449 6.4163866e-07 1.0238017e-06)
(0.0028056084 6.9901898e-07 1.0118756e-06)
(0.0027937799 7.5455949e-07 9.9986897e-07)
(0.0027822461 8.0834962e-07 9.8781028e-07)
(0.0027709946 8.6046951e-07 9.7571961e-07)
(0.0027600137 9.1102683e-07 9.6360196e-07)
(0.0027492926 9.6019513e-07 9.5144704e-07)
(0.0027388207 1.0080056e-06 9.3926751e-07)
(0.0027285887 1.0528495e-06 9.2746598e-07)
(0.0027185878 1.0958669e-06 9.1582928e-07)
(0.0027088089 1.1375004e-06 9.0425428e-07)
(0.0026992438 1.1777667e-06 8.9275959e-07)
(0.0026898847 1.2166569e-06 8.8136677e-07)
(0.0026807244 1.2541688e-06 8.7007983e-07)
(0.0026717559 1.2903133e-06 8.5890699e-07)
(0.0026629726 1.3251073e-06 8.4785192e-07)
(0.0026543682 1.3585739e-06 8.3692218e-07)
(0.0026459367 1.390741e-06 8.2612144e-07)
(0.0026376723 1.4216377e-06 8.1545324e-07)
(0.0026295698 1.4512896e-06 8.0491927e-07)
(0.0026216238 1.4797334e-06 7.945233e-07)
(0.0026138294 1.506991e-06 7.8426341e-07)
(0.002606182 1.5330919e-06 7.7414001e-07)
(0.0025986769 1.5580627e-06 7.6415156e-07)
(0.0025913099 1.5819218e-06 7.5429494e-07)
(0.0025840769 1.6046803e-06 7.4456482e-07)
(0.0025769739 1.626347e-06 7.3495361e-07)