/*--------------------------------*- C++ -*----------------------------------*\
  =========                 |
  \\      /  F ield         | OpenFOAM: The Open Source CFD Toolbox
   \\    /   O peration     | Website:  https://openfoam.org
    \\  /    A nd           | Version:  7
     \\/     M anipulation  |
\*---------------------------------------------------------------------------*/
FoamFile
{
    version     2.0;
    format      ascii;
    class       surfaceScalarField;
    location    "3050/water";
    object      phi;
}
// * * * * * * * * * * * * * * * * * * * * * * * * * * * * * * * * * * * * * //

dimensions      [1 0 -1 0 0 0 0];

internalField   nonuniform List<scalar> 
156660
(
9.905724e-05
6.0010402e-06
6.0528092e-06
8.6847498e-05
6.0555113e-06
6.1542307e-06
7.5687891e-05
5.5111362e-06
5.6484701e-06
6.5441704e-05
5.0404181e-06
5.2057689e-06
5.6267661e-05
4.4956436e-06
4.6783991e-06
4.8318019e-05
3.8797648e-06
4.0698777e-06
4.1624776e-05
3.2524448e-06
3.4407981e-06
3.6124897e-05
2.660462e-06
2.839417e-06
3.1692235e-05
2.1345126e-06
2.2981489e-06
2.8162841e-05
1.6926975e-06
1.8366964e-06
2.5361437e-05
1.3399933e-06
1.4614113e-06
2.3124664e-05
1.0698477e-06
1.1669256e-06
2.1315127e-05
8.6875417e-07
9.4078226e-07
1.9825714e-05
7.2110063e-07
7.6831273e-07
1.8577278e-05
6.1248243e-07
6.3595308e-07
1.7513255e-05
5.3125219e-07
5.3277149e-07
1.6593744e-05
4.6879724e-07
4.5071348e-07
1.5790433e-05
4.1913719e-07
3.8417387e-07
1.5082784e-05
3.782907e-07
3.2935845e-07
1.4455417e-05
3.4367128e-07
2.8369563e-07
1.3896409e-05
3.1361409e-07
2.4539333e-07
1.339622e-05
2.870445e-07
2.1314454e-07
1.2947015e-05
2.6326034e-07
1.8594508e-07
1.2542237e-05
2.4179368e-07
1.6298462e-07
1.2176318e-05
2.2232208e-07
1.4359691e-07
1.1844484e-05
2.0461482e-07
1.2721881e-07
1.1542609e-05
1.8849494e-07
1.1337975e-07
1.1267116e-05
1.7381573e-07
1.0167793e-07
1.1014892e-05
1.6046269e-07
9.1760833e-08
1.0783252e-05
1.4833969e-07
8.3300635e-08
1.0569851e-05
1.3734905e-07
7.6052126e-08
1.0372614e-05
1.2738865e-07
6.9848321e-08
1.0189731e-05
1.183681e-07
6.4514832e-08
1.001963e-05
1.1020448e-07
5.9896613e-08
9.8609388e-06
1.0281923e-07
5.5871649e-08
9.7124594e-06
9.613796e-08
5.2341369e-08
9.5731439e-06
9.009117e-08
4.922437e-08
9.4420759e-06
8.461447e-08
4.6453585e-08
9.3184531e-06
7.9648641e-08
4.3974135e-08
9.2015723e-06
7.5139712e-08
4.1741078e-08
9.0908166e-06
7.1038154e-08
3.9717571e-08
8.9856432e-06
6.7301143e-08
3.7872298e-08
8.8855707e-06
6.3894254e-08
3.6178156e-08
8.7901757e-06
6.0780113e-08
3.4614939e-08
8.6990829e-06
5.7926157e-08
3.3166656e-08
8.611959e-06
5.5303743e-08
3.1820143e-08
8.5285072e-06
5.2887442e-08
3.0564405e-08
8.4484619e-06
5.0655069e-08
2.9390274e-08
8.3715848e-06
4.8587041e-08
2.8290001e-08
8.2976614e-06
4.6666162e-08
2.7257195e-08
8.2264975e-06
4.4877465e-08
2.6286423e-08
8.1579202e-06
4.3208783e-08
2.5368549e-08
8.0917731e-06
4.1649028e-08
2.4498039e-08
8.0279108e-06
4.0186957e-08
2.367536e-08
7.9662005e-06
3.8812668e-08
2.2897522e-08
7.9065219e-06
3.7518422e-08
2.216024e-08
7.8487639e-06
3.6297885e-08
2.1460143e-08
7.7928242e-06
3.5145145e-08
2.0794581e-08
7.7386083e-06
3.4054664e-08
2.0161165e-08
7.6860293e-06
3.3021346e-08
1.9557687e-08
7.6350063e-06
3.2040788e-08
1.8982247e-08
7.5854641e-06
3.1109066e-08
1.8433048e-08
7.537333e-06
3.0222616e-08
1.7908498e-08
7.4905478e-06
2.9378254e-08
1.7406996e-08
7.4450476e-06
2.8573019e-08
1.6927219e-08
7.4007756e-06
2.7804208e-08
1.6467788e-08
7.3576783e-06
2.7069593e-08
1.6027657e-08
7.3157056e-06
2.6367067e-08
1.5605623e-08
7.2748103e-06
2.5694664e-08
1.5200688e-08
7.2349479e-06
2.5050575e-08
1.4811811e-08
7.1960766e-06
2.4433082e-08
1.4438181e-08
7.158157e-06
2.3840656e-08
1.4078955e-08
7.1211518e-06
2.3271927e-08
1.3733296e-08
7.0850258e-06
2.2725506e-08
1.3400519e-08
7.0497456e-06
2.2200189e-08
1.3079931e-08
7.0152798e-06
2.1694913e-08
1.2770897e-08
6.9815985e-06
2.1208605e-08
1.2472761e-08
6.9486733e-06
2.0740257e-08
1.218493e-08
6.9164775e-06
2.0288969e-08
1.1906786e-08
6.8849857e-06
1.9853953e-08
1.1637827e-08
6.8541739e-06
1.9434383e-08
1.1377452e-08
6.8240194e-06
1.9029454e-08
1.1125093e-08
6.7945006e-06
1.8638493e-08
1.0880248e-08
6.7655975e-06
1.8260746e-08
1.0642299e-08
6.7372912e-06
1.7895545e-08
1.041071e-08
6.709564e-06
1.7542099e-08
1.0185079e-08
6.6823995e-06
1.719962e-08
9.9648766e-09
6.6557824e-06
1.6867268e-08
9.749796e-09
6.6296983e-06
1.6544139e-08
9.5399635e-09
6.6041331e-06
1.6229282e-08
9.3359992e-09
6.5790714e-06
1.5921998e-08
9.1396879e-09
6.554494e-06
1.5622325e-08
8.9551032e-09
6.5303708e-06
1.5332545e-08
8.7906687e-09
6.5066467e-06
1.506047e-08
8.6636012e-09
6.4832094e-06
1.4827789e-08
8.6095114e-09
6.4598103e-06
1.4693079e-08
8.7060218e-09
6.4358387e-06
1.4826379e-08
9.1451589e-09
6.4096303e-06
1.5741753e-08
1.0466753e-08
6.3782855e-06
1.8026568e-08
1.3318227e-08
3.2300212e-08
2.7923538e-08
0.00010646494
4.1872385e-06
6.4599816e-06
0.0001002019
5.695418e-06
6.6231353e-06
9.3659588e-05
5.7790389e-06
6.2744098e-06
8.7011589e-05
5.6514782e-06
6.0369386e-06
8.0422927e-05
5.366912e-06
5.7173941e-06
7.4094022e-05
4.9022832e-06
5.3063862e-06
6.8167026e-05
4.3278136e-06
4.8516272e-06
6.2722565e-05
3.717891e-06
4.387032e-06
5.7799049e-05
3.1243144e-06
3.9337144e-06
5.3403345e-05
2.5820689e-06
3.5063329e-06
4.9517402e-05
2.1121062e-06
3.1138299e-06
4.6105482e-05
1.7220197e-06
2.7597474e-06
4.3121558e-05
1.4089354e-06
2.4437429e-06
4.0515558e-05
1.1637552e-06
2.163346e-06
3.8237948e-05
9.7485851e-07
1.9152336e-06
3.6242683e-05
8.3055971e-07
1.6959573e-06
3.4488759e-05
7.2043695e-07
1.5022849e-06
3.2940716e-05
6.3586297e-07
1.3313172e-06
3.1568463e-05
5.7005005e-07
1.180493e-06
3.0346733e-05
5.1784897e-07
1.0475521e-06
2.9254398e-05
4.7545957e-07
9.304903e-07
2.8273782e-05
4.401396e-07
8.2752022e-07
2.7390054e-05
4.0994893e-07
7.3704006e-07
2.6590699e-05
3.8353958e-07
6.5760856e-07
2.5865102e-05
3.5998894e-07
5.8793071e-07
2.5204197e-05
3.3867636e-07
5.268426e-07
2.4600205e-05
3.1918361e-07
4.733035e-07
2.4046429e-05
3.0120192e-07
4.2639017e-07
2.3537073e-05
2.8455206e-07
3.8526716e-07
2.3067119e-05
2.6911099e-07
3.4918238e-07
2.2632208e-05
2.5478166e-07
3.1747782e-07
2.2228528e-05
2.4147379e-07
2.8959532e-07
2.1852744e-05
2.2911074e-07
2.6504124e-07
2.1501947e-05
2.1762893e-07
2.4337256e-07
2.1173591e-05
2.069695e-07
2.242057e-07
2.0865444e-05
1.9707568e-07
2.0720868e-07
2.0575549e-05
1.8789256e-07
1.9209399e-07
2.0302183e-05
1.7936724e-07
1.7861346e-07
2.0043829e-05
1.7144911e-07
1.6655324e-07
1.979915e-05
1.6408986e-07
1.5572944e-07
1.956696e-05
1.5724382e-07
1.4598405e-07
1.934621e-05
1.5086894e-07
1.3718215e-07
1.9135969e-05
1.449265e-07
1.2920881e-07
1.8935407e-05
1.3937904e-07
1.2196306e-07
1.8743783e-05
1.341923e-07
1.1535762e-07
1.8560435e-05
1.293351e-07
1.0931727e-07
1.8384766e-05
1.2477907e-07
1.0377715e-07
1.8216241e-05
1.2049854e-07
9.8681287e-08
1.8054377e-05
1.1647013e-07
9.3981317e-08
1.7898734e-05
1.1267291e-07
8.9635412e-08
1.7748917e-05
1.0908821e-07
8.5607016e-08
1.7604563e-05
1.0570006e-07
8.1862414e-08
1.7465345e-05
1.0249338e-07
7.8373274e-08
1.7330962e-05
9.945299e-08
7.5116991e-08
1.7201138e-05
9.6564439e-08
7.2072742e-08
1.7075619e-05
9.3816635e-08
6.9221167e-08
1.695417e-05
9.1201115e-08
6.6545111e-08
1.6836577e-05
8.8709101e-08
6.402953e-08
1.6722638e-05
8.6331953e-08
6.1661061e-08
1.661217e-05
8.406176e-08
5.9427687e-08
1.6505001e-05
8.1891511e-08
5.7318804e-08
1.640097e-05
7.9814905e-08
5.532482e-08
1.6299929e-05
7.7826143e-08
5.3437146e-08
1.620174e-05
7.5919859e-08
5.1647911e-08
1.6106272e-05
7.4091045e-08
4.995011e-08
1.6013404e-05
7.2334992e-08
4.8337366e-08
1.5923022e-05
7.0647753e-08
4.6803851e-08
1.5835019e-05
6.9025732e-08
4.5344277e-08
1.5749294e-05
6.7465527e-08
4.3953709e-08
1.5665753e-05
6.5963756e-08
4.2627719e-08
1.5584307e-05
6.4517322e-08
4.1362201e-08
1.5504871e-05
6.3123404e-08
4.0153379e-08
1.5427365e-05
6.1779309e-08
3.8997809e-08
1.5351716e-05
6.0482557e-08
3.7892302e-08
1.5277852e-05
5.9230821e-08
3.6833842e-08
1.5205705e-05
5.8022002e-08
3.5819736e-08
1.5135212e-05
5.6854018e-08
3.4847376e-08
1.5066313e-05
5.572497e-08
3.3914348e-08
1.499895e-05
5.4633113e-08
3.3018399e-08
1.493307e-05
5.3576727e-08
3.2157437e-08
1.4868621e-05
5.2554188e-08
3.1329399e-08
1.4805554e-05
5.1563981e-08
3.053245e-08
1.4743823e-05
5.0604477e-08
2.9764679e-08
1.4683386e-05
4.9674261e-08
2.9024363e-08
1.4624199e-05
4.8771816e-08
2.8309908e-08
1.4566226e-05
4.7895475e-08
2.7619581e-08
1.4509431e-05
4.7043492e-08
2.6952011e-08
1.4453778e-05
4.6214122e-08
2.6305784e-08
1.4399237e-05
4.5405418e-08
2.5679885e-08
1.4345777e-05
4.4615736e-08
2.5073757e-08
1.4293367e-05
4.3844257e-08
2.4487716e-08
1.4241972e-05
4.3092876e-08
2.392374e-08
1.4191548e-05
4.2369929e-08
2.3387133e-08
1.4142019e-05
4.1699297e-08
2.288961e-08
1.4093249e-05
4.1141636e-08
2.2456651e-08
1.4044951e-05
4.0844637e-08
2.214655e-08
1.3996485e-05
4.1169204e-08
2.2123035e-08
1.3946229e-05
4.301229e-08
2.2985392e-08
1.389015e-05
4.8540248e-08
2.5565784e-08
6.3281509e-08
5.0000832e-08
0.00010603565
2.7876425e-06
6.4750379e-06
0.00010074799
4.4145413e-06
6.5685292e-06
9.5493515e-05
4.8594028e-06
6.1741158e-06
9.0256432e-05
4.930369e-06
5.9581921e-06
8.5101366e-05
4.8311767e-06
5.6908011e-06
8.0102875e-05
4.5561761e-06
5.3445981e-06
7.5322251e-05
4.1469521e-06
4.9614853e-06
7.0803266e-05
3.6678925e-06
4.5689837e-06
6.6576264e-05
3.1701903e-06
4.1811254e-06
6.2660725e-05
2.6900109e-06
3.8075976e-06
5.9065443e-05
2.2519318e-06
3.4554566e-06
5.5788936e-05
1.8697304e-06
3.1287957e-06
5.2820978e-05
1.5477473e-06
2.8291458e-06
5.014479e-05
1.2836302e-06
2.5563139e-06
4.7739304e-05
1.07123e-06
2.3091141e-06
4.5581183e-05
9.0281501e-07
2.0858661e-06
4.3646423e-05
7.7048778e-07
1.884709e-06
4.1911533e-05
6.6697371e-07
1.7037793e-06
4.0354306e-05
5.8598197e-07
1.541295e-06
3.8954268e-05
5.2230224e-07
1.3955849e-06
3.769288e-05
4.7175605e-07
1.265091e-06
3.6553576e-05
4.3107985e-07
1.1483634e-06
3.552169e-05
3.9778208e-07
1.0440533e-06
3.4584322e-05
3.6999884e-07
9.509083e-07
3.3730181e-05
3.4635987e-07
8.6777016e-07
3.2949411e-05
3.2587762e-07
7.9356869e-07
3.2233419e-05
3.0784048e-07
7.2733485e-07
3.1574711e-05
2.9172985e-07
6.6818104e-07
3.0966769e-05
2.7719265e-07
6.1530129e-07
3.0403928e-05
2.6398099e-07
5.679702e-07
2.9881258e-05
2.5190848e-07
5.2554313e-07
2.9394455e-05
2.4082709e-07
4.8745e-07
2.8939761e-05
2.3062156e-07
4.531833e-07
2.8513895e-05
2.2120151e-07
4.2229386e-07
2.8113985e-05
2.1249194e-07
3.9438671e-07
2.7737518e-05
2.0442793e-07
3.6911491e-07
2.7382285e-05
1.9695189e-07
3.4617384e-07
2.7046344e-05
1.9001177e-07
3.2529679e-07
2.6727982e-05
1.8355994e-07
3.0625044e-07
2.6425689e-05
1.7755277e-07
2.8883086e-07
2.6138123e-05
1.7195005e-07
2.7285983e-07
2.5864094e-05
1.6671514e-07
2.5818185e-07
2.5602546e-05
1.6181451e-07
2.4466093e-07
2.535253e-05
1.5721705e-07
2.3217764e-07
2.51132e-05
1.5289442e-07
2.2062728e-07
2.4883797e-05
1.4882096e-07
2.0991773e-07
2.4663634e-05
1.4497367e-07
1.9996813e-07
2.4452094e-05
1.413318e-07
1.9070706e-07
2.4248615e-05
1.3787695e-07
1.8207154e-07
2.405269e-05
1.3459265e-07
1.7400571e-07
2.3863854e-05
1.314646e-07
1.6645992e-07
2.3681684e-05
1.2848057e-07
1.5938926e-07
2.3505794e-05
1.2562918e-07
1.5275411e-07
2.3335829e-05
1.2289867e-07
1.4651968e-07
2.3171462e-05
1.2027633e-07
1.406546e-07
2.3012394e-05
1.1775476e-07
1.3513022e-07
2.2858345e-05
1.153297e-07
1.2992044e-07
2.2709057e-05
1.1299535e-07
1.2500173e-07
2.2564291e-05
1.1074517e-07
1.2035289e-07
2.2423824e-05
1.0857348e-07
1.1595459e-07
2.2287451e-05
1.0647551e-07
1.1178922e-07
2.2154978e-05
1.0444702e-07
1.0784079e-07
2.2026226e-05
1.0248418e-07
1.0409459e-07
2.1901025e-05
1.0058352e-07
1.0053714e-07
2.1779218e-05
9.8741525e-08
9.7156126e-08
2.1660658e-05
9.6954904e-08
9.394025e-08
2.1545205e-05
9.5221273e-08
9.0879042e-08
2.1432729e-05
9.3538797e-08
8.7962809e-08
2.1323107e-05
9.1905307e-08
8.5182608e-08
2.1216222e-05
9.0318498e-08
8.2530189e-08
2.1111965e-05
8.8776396e-08
7.9997897e-08
2.1010233e-05
8.7277127e-08
7.757866e-08
2.0910927e-05
8.5818973e-08
7.5265885e-08
2.0813956e-05
8.4400315e-08
7.3053426e-08
2.0719232e-05
8.3019692e-08
7.0935634e-08
2.0626671e-05
8.1675679e-08
6.8907223e-08
2.0536195e-05
8.0366842e-08
6.6963129e-08
2.0447729e-05
7.9091961e-08
6.5098759e-08
2.0361203e-05
7.7849849e-08
6.3309766e-08
2.0276548e-05
7.6639262e-08
6.1592029e-08
2.0193702e-05
7.5458984e-08
5.9941706e-08
2.0112602e-05
7.4307949e-08
5.8355226e-08
2.0033193e-05
7.3184926e-08
5.6829068e-08
1.9955419e-05
7.2088615e-08
5.5359974e-08
1.9879228e-05
7.1017619e-08
5.3944842e-08
1.9804572e-05
6.9970455e-08
5.2580717e-08
1.9731406e-05
6.8945248e-08
5.1264824e-08
1.9659685e-05
6.7940117e-08
4.9994403e-08
1.9589371e-05
6.6953041e-08
4.8767057e-08
1.9520423e-05
6.5982363e-08
4.7580552e-08
1.9452807e-05
6.5028038e-08
4.6433107e-08
1.9386482e-05
6.4094093e-08
4.5323753e-08
1.9321404e-05
6.3194695e-08
4.4253058e-08
1.9257511e-05
6.2366326e-08
4.3225235e-08
1.9194705e-05
6.1695162e-08
4.2253144e-08
1.9132798e-05
6.137409e-08
4.1377398e-08
1.9071394e-05
6.1822417e-08
4.0750677e-08
1.9009424e-05
6.3924739e-08
4.105763e-08
1.8944661e-05
6.9304664e-08
4.399881e-08
7.9170936e-08
7.4661525e-08
0.0001054937
1.9169871e-06
6.4880406e-06
0.00010005365
3.2729596e-06
6.5816334e-06
9.4926077e-05
3.8288995e-06
6.1580776e-06
8.9946373e-05
3.9838108e-06
5.9262629e-06
8.5163276e-05
3.9595077e-06
5.6547657e-06
8.0619137e-05
3.7899368e-06
5.3103784e-06
7.6329462e-05
3.5015547e-06
4.9350725e-06
7.230016e-05
3.1412013e-06
4.5559928e-06
6.8534206e-05
2.7514802e-06
4.1846641e-06
6.5032983e-05
2.3633493e-06
3.8278853e-06
6.1795789e-05
1.9984143e-06
3.490711e-06
5.8818843e-05
1.6703759e-06
3.176301e-06
5.6094717e-05
1.3858295e-06
2.886043e-06
5.3612488e-05
1.1457945e-06
2.6200649e-06
5.1358373e-05
9.4764118e-07
2.3777043e-06
4.9316593e-05
7.8676783e-07
2.1578272e-06
4.7470246e-05
6.5779547e-07
1.9590391e-06
4.5802069e-05
5.5532541e-07
1.7798252e-06
4.4295042e-05
4.7437114e-07
1.6186378e-06
4.293283e-05
4.105667e-07
1.473948e-06
4.1700078e-05
3.6023236e-07
1.3442759e-06
4.0582591e-05
3.2035743e-07
1.2282094e-06
3.956742e-05
2.8853736e-07
1.1244154e-06
3.8642881e-05
2.6289063e-07
1.0316467e-06
3.7798527e-05
2.4196982e-07
9.4874399e-07
3.7025076e-05
2.2467703e-07
8.7465171e-07
3.6314324e-05
2.10189e-07
8.084041e-07
3.5659057e-05
1.9788607e-07
7.4911045e-07
3.5052961e-05
1.8731583e-07
6.9597282e-07
3.4490519e-05
1.7814871e-07
6.4827382e-07
3.3966922e-05
1.7013167e-07
6.0537438e-07
3.3477973e-05
1.6306724e-07
5.6670866e-07
3.3020016e-05
1.5680296e-07
5.3177542e-07
3.2589865e-05
1.5122053e-07
5.0013242e-07
3.218474e-05
1.4622562e-07
4.7139137e-07
3.1802215e-05
1.4174073e-07
4.4521231e-07
3.1440168e-05
1.3770093e-07
4.2129809e-07
3.1096739e-05
1.3405093e-07
3.9938922e-07
3.0770297e-05
1.3074294e-07
3.7925955e-07
3.0459402e-05
1.2773517e-07
3.6071196e-07
3.0162787e-05
1.2499091e-07
3.435748e-07
2.9879325e-05
1.2247786e-07
3.2769854e-07
2.960802e-05
1.2016731e-07
3.1295274e-07
2.934798e-05
1.180338e-07
2.9922353e-07
2.9098408e-05
1.1605462e-07
2.8641139e-07
2.885859e-05
1.1420984e-07
2.7442906e-07
2.8627882e-05
1.1248191e-07
2.6320001e-07
2.8405701e-05
1.1085559e-07
2.5265687e-07
2.819152e-05
1.0931755e-07
2.4274024e-07
2.7984859e-05
1.0785647e-07
2.3339756e-07
2.7785279e-05
1.0646278e-07
2.2458212e-07
2.7592378e-05
1.0512868e-07
2.1625213e-07
2.740579e-05
1.0384733e-07
2.0837035e-07
2.7225174e-05
1.0261115e-07
2.009036e-07
2.705022e-05
1.0140745e-07
1.9382255e-07
2.6880641e-05
1.0023385e-07
1.8710041e-07
2.6716166e-05
9.909235e-08
1.8071223e-07
2.6556546e-05
9.7980035e-08
1.7463558e-07
2.6401548e-05
9.6892519e-08
1.6885014e-07
2.6250957e-05
9.582708e-08
1.633374e-07
2.610457e-05
9.4781692e-08
1.5808042e-07
2.5962199e-05
9.3754722e-08
1.5306362e-07
2.5823666e-05
9.2744895e-08
1.4827262e-07
2.5688804e-05
9.1751014e-08
1.4369412e-07
2.5557458e-05
9.0771777e-08
1.3931597e-07
2.5429481e-05
8.9805166e-08
1.3512692e-07
2.5304734e-05
8.8851479e-08
1.3111645e-07
2.5183087e-05
8.7911238e-08
1.2727468e-07
2.5064416e-05
8.6983947e-08
1.2359245e-07
2.4948604e-05
8.6068866e-08
1.2006119e-07
2.4835542e-05
8.5165762e-08
1.1667303e-07
2.4725124e-05
8.4274322e-08
1.1342049e-07
2.4617252e-05
8.3394278e-08
1.1029653e-07
2.4511832e-05
8.2525464e-08
1.0729474e-07
2.4408775e-05
8.1667779e-08
1.04409e-07
2.4307997e-05
8.0821e-08
1.0163343e-07
2.4209416e-05
7.9985062e-08
9.8962651e-08
2.4112956e-05
7.9159768e-08
9.6391553e-08
2.4018546e-05
7.8345024e-08
9.3915271e-08
2.3926115e-05
7.7540645e-08
9.1529291e-08
2.3835598e-05
7.6746559e-08
8.9229268e-08
2.3746933e-05
7.5962304e-08
8.7011027e-08
2.366006e-05
7.5187616e-08
8.4870722e-08
2.3574922e-05
7.442196e-08
8.2804523e-08
2.3491466e-05
7.3664597e-08
8.0808905e-08
2.3409641e-05
7.2914609e-08
7.8880335e-08
2.33294e-05
7.2170697e-08
7.7015497e-08
2.3250698e-05
7.1431287e-08
7.5211014e-08
2.3173493e-05
7.0694849e-08
7.3463646e-08
2.3097745e-05
6.9960216e-08
7.1770071e-08
2.3023418e-05
6.9227995e-08
7.0127031e-08
2.2950477e-05
6.8503507e-08
6.8531204e-08
2.2878889e-05
6.7802868e-08
6.6979704e-08
2.2808619e-05
6.7165071e-08
6.5471584e-08
2.2739625e-05
6.6675281e-08
6.401336e-08
2.267185e-05
6.6507077e-08
6.2642296e-08
2.2605149e-05
6.6990743e-08
6.1532371e-08
2.2538888e-05
6.868604e-08
6.1499893e-08
2.2471121e-05
7.2226955e-08
6.4845106e-08
7.6722845e-08
9.8461306e-08
0.0001051979
1.3340884e-06
6.4961221e-06
9.9496561e-05
2.3731022e-06
6.6011947e-06
9.4262459e-05
2.9019223e-06
6.1610799e-06
8.9251186e-05
3.0856642e-06
5.9094196e-06
8.4493497e-05
3.0947346e-06
5.6224614e-06
8.0033635e-05
2.9846657e-06
5.265134e-06
7.5876907e-05
2.7790155e-06
4.8792667e-06
7.2014635e-05
2.5106844e-06
4.4927895e-06
6.8436293e-05
2.2128728e-06
4.1169489e-06
6.5131387e-05
1.9107259e-06
3.7575292e-06
6.208941e-05
1.621732e-06
3.4186596e-06
5.9299432e-05
1.3573877e-06
3.1029661e-06
5.6749589e-05
1.1240344e-06
2.8116386e-06
5.4426788e-05
9.2377946e-07
2.5448158e-06
5.2316754e-05
7.5572795e-07
2.3019466e-06
5.0404313e-05
6.1717856e-07
2.0820302e-06
4.8673788e-05
5.045435e-07
1.8837772e-06
4.7109414e-05
4.1397177e-07
1.7057274e-06
4.5695713e-05
3.4173649e-07
1.5463363e-06
4.4417792e-05
2.8445144e-07
1.4040359e-06
4.3261575e-05
2.3917115e-07
1.2772781e-06
4.2213952e-05
2.0341503e-07
1.1645652e-06
4.1262871e-05
1.7514742e-07
1.0644719e-06
4.039737e-05
1.5273233e-07
9.7565901e-07
3.9607583e-05
1.3487527e-07
8.9688144e-07
3.8884688e-05
1.2055565e-07
8.2701639e-07
3.8220848e-05
1.0901091e-07
7.6501856e-07
3.7609155e-05
9.9633843e-08
7.0994488e-07
3.7043542e-05
9.1977462e-08
6.6095088e-07
3.6518702e-05
8.5705826e-08
6.1728291e-07
3.6030009e-05
8.0552367e-08
5.7827309e-07
3.5573433e-05
7.6308273e-08
5.4333417e-07
3.5145475e-05
7.2811276e-08
5.1195031e-07
3.4743091e-05
6.9934161e-08
4.8367022e-07
3.4363641e-05
6.7575466e-08
4.5810065e-07
3.4004828e-05
6.5652906e-08
4.3489996e-07
3.3664659e-05
6.4098591e-08
4.1377208e-07
3.3341393e-05
6.2855933e-08
3.9446094e-07
3.3033513e-05
6.1877049e-08
3.7674529e-07
3.2739693e-05
6.1121085e-08
3.6043424e-07
3.2458768e-05
6.0553074e-08
3.453633e-07
3.2189712e-05
6.0142684e-08
3.3139059e-07
3.1931622e-05
5.9863626e-08
3.1839377e-07
3.1683696e-05
5.9693135e-08
3.0626735e-07
3.1445219e-05
5.961122e-08
2.9492015e-07
3.1215555e-05
5.9600613e-08
2.8427318e-07
3.0994132e-05
5.9646534e-08
2.7425807e-07
3.0780436e-05
5.9736192e-08
2.648154e-07
3.0574002e-05
5.9858668e-08
2.5589334e-07
3.0374407e-05
6.0004917e-08
2.4744664e-07
3.0181267e-05
6.0167631e-08
2.3943549e-07
2.9994229e-05
6.0341243e-08
2.3182487e-07
2.9812971e-05
6.0521798e-08
2.2458375e-07
2.9637193e-05
6.0704459e-08
2.1768455e-07
2.9466629e-05
6.0867299e-08
2.111046e-07
2.9301024e-05
6.1017017e-08
2.048218e-07
2.914014e-05
6.1160885e-08
1.988157e-07
2.8983756e-05
6.1294961e-08
1.930684e-07
2.8831669e-05
6.1415492e-08
1.875639e-07
2.8683688e-05
6.152098e-08
1.8228764e-07
2.8539633e-05
6.1610552e-08
1.7722636e-07
2.8399336e-05
6.1683773e-08
1.7236785e-07
2.8262639e-05
6.1740439e-08
1.6770088e-07
2.8129394e-05
6.1780658e-08
1.6321519e-07
2.7999461e-05
6.180387e-08
1.5890119e-07
2.7872709e-05
6.1807359e-08
1.5475037e-07
2.7749012e-05
6.1793542e-08
1.5075442e-07
2.7628253e-05
6.1764833e-08
1.4690558e-07
2.7510319e-05
6.1720993e-08
1.4319663e-07
2.7395105e-05
6.1662112e-08
1.3962086e-07
2.728251e-05
6.1588642e-08
1.3617202e-07
2.7172439e-05
6.150107e-08
1.3284423e-07
2.7064802e-05
6.1399979e-08
1.2963192e-07
2.6959511e-05
6.1285957e-08
1.2652994e-07
2.6856486e-05
6.1159529e-08
1.2353325e-07
2.6755649e-05
6.1021312e-08
1.2063732e-07
2.6656924e-05
6.0871855e-08
1.1783767e-07
2.6560242e-05
6.0711723e-08
1.1513016e-07
2.6465535e-05
6.0541385e-08
1.1251076e-07
2.6372738e-05
6.0361346e-08
1.0997578e-07
2.6281791e-05
6.0171915e-08
1.0752158e-07
2.6192636e-05
5.9973529e-08
1.051447e-07
2.6105215e-05
5.9766313e-08
1.0284183e-07
2.6019477e-05
5.9550269e-08
1.0060973e-07
2.5935371e-05
5.9325131e-08
9.8445273e-08
2.585285e-05
5.9090485e-08
9.6345393e-08
2.5771868e-05
5.8845483e-08
9.4306939e-08
2.5692384e-05
5.8588991e-08
9.2326731e-08
2.5614357e-05
5.831979e-08
9.0401461e-08
2.5537753e-05
5.8037083e-08
8.852734e-08
2.5462539e-05
5.7741631e-08
8.6700251e-08
2.5388689e-05
5.7438408e-08
8.4915186e-08
2.5316184e-05
5.71414e-08
8.3166624e-08
2.5245017e-05
5.6882576e-08
8.1449633e-08
2.51752e-05
5.6726044e-08
7.9765823e-08
2.510677e-05
5.6787912e-08
7.8149176e-08
2.5039729e-05
5.7251603e-08
7.6780964e-08
2.4973573e-05
5.8330938e-08
7.6510227e-08
2.4906079e-05
5.9989493e-08
7.9732157e-08
6.0714983e-08
1.1287821e-07
0.00010503672
9.0789372e-07
6.5005614e-06
9.9140653e-05
1.6524914e-06
6.6166802e-06
9.3788329e-05
2.0825241e-06
6.1717217e-06
8.8708526e-05
2.2549373e-06
5.91053e-06
8.3909682e-05
2.278404e-06
5.6151748e-06
7.9437109e-05
2.2074821e-06
5.2497564e-06
7.5296201e-05
2.0645348e-06
4.8553893e-06
7.1474034e-05
1.8722543e-06
4.4605969e-06
6.7955013e-05
1.6547667e-06
4.0771269e-06
6.4723621e-05
1.4313505e-06
3.7107669e-06
6.1764423e-05
1.2154298e-06
3.3655007e-06
5.9062056e-05
1.015864e-06
3.0438911e-06
5.6601108e-05
8.3782744e-07
2.7471548e-06
5.4365944e-05
6.8344651e-07
2.475497e-06
5.2340648e-05
5.5258531e-07
2.2284383e-06
5.0509125e-05
4.4366549e-07
2.0050361e-06
4.8855299e-05
3.5433457e-07
1.8040352e-06
4.7363353e-05
2.8193591e-07
1.6239821e-06
4.6017963e-05
2.2381346e-07
1.4633127e-06
4.4804503e-05
1.7749383e-07
1.320418e-06
4.3709199e-05
1.4078089e-07
1.1936935e-06
4.2719248e-05
1.1179155e-07
1.081575e-06
4.1822875e-05
8.8954529e-08
9.8256584e-07
4.1009364e-05
7.0987966e-08
8.9525473e-07
4.0269054e-05
5.6861814e-08
8.1832383e-07
3.9593306e-05
4.5719123e-08
7.5058475e-07
3.8974405e-05
3.6977846e-08
6.9093436e-07
3.8405585e-05
3.0067381e-08
6.3838632e-07
3.7880869e-05
2.4650826e-08
5.920424e-07
3.7395029e-05
2.0439975e-08
5.5110605e-07
3.6943514e-05
1.7190279e-08
5.1487717e-07
3.6522366e-05
1.4716719e-08
4.8273959e-07
3.6128148e-05
1.2874796e-08
4.5415392e-07
3.5757883e-05
1.1549913e-08
4.2864944e-07
3.5408991e-05
1.0650767e-08
4.0581706e-07
3.5079238e-05
1.0103628e-08
3.8530226e-07
3.4766689e-05
9.8483077e-09
3.6679876e-07
3.4469668e-05
9.8351398e-09
3.5004233e-07
3.4186716e-05
1.0022933e-08
3.3480553e-07
3.3916567e-05
1.0377052e-08
3.2089289e-07
3.3658116e-05
1.0868066e-08
3.0813659e-07
3.3410395e-05
1.1470963e-08
2.9639286e-07
3.3172556e-05
1.2164247e-08
2.8553828e-07
3.2943853e-05
1.2929328e-08
2.7546716e-07
3.2723625e-05
1.3750173e-08
2.6608893e-07
3.2511286e-05
1.4613068e-08
2.5732573e-07
3.2306316e-05
1.5506215e-08
2.4911066e-07
3.2108246e-05
1.6419584e-08
2.4138622e-07
3.1916658e-05
1.7344611e-08
2.3410269e-07
3.1731171e-05
1.8274308e-08
2.2721716e-07
3.1551444e-05
1.9203152e-08
2.2069217e-07
3.1377162e-05
2.0127723e-08
2.1449508e-07
3.1208038e-05
2.1048625e-08
2.085968e-07
3.10438e-05
2.1972783e-08
2.0297055e-07
3.0884232e-05
2.2827852e-08
1.976074e-07
3.0729103e-05
2.3662944e-08
1.9248228e-07
3.05782e-05
2.449002e-08
1.8757379e-07
3.0431331e-05
2.5296302e-08
1.8286763e-07
3.0288318e-05
2.6077994e-08
1.7835078e-07
3.0148994e-05
2.6834306e-08
1.7401109e-07
3.0013202e-05
2.75647e-08
1.6983754e-07
2.9880797e-05
2.8268935e-08
1.6582025e-07
2.975164e-05
2.8947385e-08
1.6195015e-07
2.9625601e-05
2.9600739e-08
1.5821897e-07
2.9502557e-05
3.0228519e-08
1.5461917e-07
2.9382396e-05
3.0823567e-08
1.5114464e-07
2.9265007e-05
3.1393106e-08
1.4778877e-07
2.9150287e-05
3.1939579e-08
1.4454539e-07
2.9038137e-05
3.2461901e-08
1.4140902e-07
2.8928465e-05
3.2960079e-08
1.3837462e-07
2.8821181e-05
3.3434742e-08
1.3543753e-07
2.8716203e-05
3.3886361e-08
1.3259327e-07
2.8613449e-05
3.4315543e-08
1.2983788e-07
2.8512845e-05
3.4722905e-08
1.2716736e-07
2.8414317e-05
3.510901e-08
1.2457815e-07
2.8317797e-05
3.5474441e-08
1.2206679e-07
2.8223219e-05
3.5819895e-08
1.1963008e-07
2.813052e-05
3.6145928e-08
1.1726493e-07
2.803964e-05
3.6453093e-08
1.1496842e-07
2.7950522e-05
3.6741887e-08
1.1273773e-07
2.7863111e-05
3.7012821e-08
1.1057029e-07
2.7777354e-05
3.726625e-08
1.0846344e-07
2.7693204e-05
3.7502486e-08
1.0641473e-07
2.761061e-05
3.7721571e-08
1.0442177e-07
2.752953e-05
3.7923535e-08
1.02482e-07
2.744992e-05
3.8107978e-08
1.0059306e-07
2.7371738e-05
3.8274305e-08
9.8752294e-08
2.7294949e-05
3.8421545e-08
9.6956919e-08
2.7219516e-05
3.8548733e-08
9.5203629e-08
2.714541e-05
3.8655111e-08
9.3488649e-08
2.7072603e-05
3.8741136e-08
9.1806949e-08
2.7001079e-05
3.881028e-08
9.0152346e-08
2.6930832e-05
3.8872136e-08
8.8516557e-08
2.6861876e-05
3.8947393e-08
8.6890501e-08
2.679426e-05
3.9073537e-08
8.5269186e-08
2.6728065e-05
3.9306951e-08
8.3675942e-08
2.6663337e-05
3.9708352e-08
8.2271147e-08
2.659956e-05
4.0272024e-08
8.1836182e-08
2.6534295e-05
4.0698054e-08
8.4555705e-08
3.9620838e-08
1.1507127e-07
0.00010494757
5.6811081e-07
6.5033076e-06
9.8925416e-05
1.0462983e-06
6.6283517e-06
9.3480449e-05
1.3439844e-06
6.1835065e-06
8.8341777e-05
1.4751324e-06
5.9184762e-06
8.3502084e-05
1.4993911e-06
5.6187065e-06
7.9004057e-05
1.4572411e-06
5.2482679e-06
7.4853978e-05
1.3667382e-06
4.8478757e-06
7.1037378e-05
1.2423973e-06
4.4464569e-06
6.7536063e-05
1.0997693e-06
4.0563128e-06
6.4331998e-05
9.519236e-07
3.683491e-06
6.1407318e-05
8.0805756e-07
3.3320524e-06
5.8744339e-05
6.7422205e-07
3.0046209e-06
5.6325632e-05
5.5404402e-07
2.7024907e-06
5.4133973e-05
4.4916749e-07
2.4259383e-06
5.2152298e-05
3.5972402e-07
2.174536e-06
5.0363747e-05
2.8484512e-07
1.9473717e-06
4.875178e-05
2.2310005e-07
1.7432015e-06
4.7300339e-05
1.7281167e-07
1.5605647e-06
4.5994012e-05
1.3226573e-07
1.3978747e-06
4.4818177e-05
9.9840009e-08
1.2534891e-06
4.3759121e-05
7.4075571e-08
1.1257614e-06
4.2804123e-05
5.3707632e-08
1.0130814e-06
4.1941503e-05
3.7671221e-08
9.1390376e-07
4.1160627e-05
2.5096484e-08
8.2676731e-07
4.0451891e-05
1.5294193e-08
7.5030389e-07
3.980679e-05
7.5281666e-09
6.8329177e-07
3.9217543e-05
1.6727331e-09
6.2455204e-07
3.8677513e-05
-3.0331418e-09
5.7313083e-07
3.8180739e-05
-6.6487105e-09
5.2807355e-07
3.7722004e-05
-9.3595126e-09
4.8853451e-07
3.7296777e-05
-1.1371826e-08
4.5378929e-07
3.6901112e-05
-1.2818247e-08
4.2319911e-07
3.6531588e-05
-1.3805345e-08
3.962048e-07
3.6185236e-05
-1.4417481e-08
3.7231875e-07
3.5859491e-05
-1.4721881e-08
3.5111777e-07
3.5552132e-05
-1.4772619e-08
3.3223579e-07
3.5261237e-05
-1.4613924e-08
3.1535727e-07
3.4985143e-05
-1.4282182e-08
3.0021089e-07
3.472241e-05
-1.3807704e-08
2.8656379e-07
3.4471787e-05
-1.3215887e-08
2.7421632e-07
3.4232185e-05
-1.2528186e-08
2.629977e-07
3.4002657e-05
-1.176283e-08
2.5276176e-07
3.3782373e-05
-1.093525e-08
2.4338336e-07
3.3570606e-05
-1.0058778e-08
2.3475557e-07
3.3366714e-05
-9.1447196e-09
2.2678671e-07
3.3170131e-05
-8.2028286e-09
2.1939834e-07
3.2980356e-05
-7.2412352e-09
2.1252299e-07
3.279694e-05
-6.2669116e-09
2.0610281e-07
3.2619482e-05
-5.2855689e-09
2.0008785e-07
3.2447623e-05
-4.3018371e-09
1.9443478e-07
3.228104e-05
-3.3190629e-09
1.8910585e-07
3.2119438e-05
-2.338328e-09
1.8406735e-07
3.1962554e-05
-1.3530271e-09
1.7928646e-07
3.1810075e-05
-2.7628762e-10
1.7472766e-07
3.1661878e-05
5.8582641e-10
1.7043907e-07
3.1517732e-05
1.4356501e-09
1.6637295e-07
3.1377429e-05
2.303847e-09
1.6248961e-07
3.1240792e-05
3.1586697e-09
1.5877485e-07
3.1107656e-05
3.9970168e-09
1.5521722e-07
3.0977867e-05
4.8171935e-09
1.5180548e-07
3.0851284e-05
5.6179576e-09
1.4852966e-07
3.0727774e-05
6.3990434e-09
1.4538079e-07
3.0607209e-05
7.1609162e-09
1.4235056e-07
3.0489473e-05
7.905942e-09
1.3943121e-07
3.037445e-05
8.6357514e-09
1.3661578e-07
3.0262049e-05
9.3206639e-09
1.3390396e-07
3.0152163e-05
9.993798e-09
1.3128564e-07
3.0044697e-05
1.0650367e-08
1.2875513e-07
2.9939564e-05
1.1286748e-08
1.2630829e-07
2.983668e-05
1.1903234e-08
1.2394088e-07
2.9735965e-05
1.2500145e-08
1.2164884e-07
2.9637345e-05
1.3077881e-08
1.1942842e-07
2.9540748e-05
1.3636719e-08
1.1727619e-07
2.9446105e-05
1.4177034e-08
1.1518883e-07
2.9353352e-05
1.4699169e-08
1.1316335e-07
2.9262425e-05
1.5203521e-08
1.1119702e-07
2.9173268e-05
1.5690481e-08
1.0928707e-07
2.9085822e-05
1.6160412e-08
1.0743109e-07
2.9000035e-05
1.6613571e-08
1.0562663e-07
2.8915855e-05
1.7050392e-08
1.0387156e-07
2.8833233e-05
1.7471137e-08
1.0216363e-07
2.8752123e-05
1.7875989e-08
1.0050083e-07
2.8672479e-05
1.8265111e-08
9.888109e-08
2.8594259e-05
1.8638553e-08
9.730249e-08
2.8517424e-05
1.8996207e-08
9.5762946e-08
2.8441934e-05
1.9337839e-08
9.4260337e-08
2.8367753e-05
1.966279e-08
9.2792337e-08
2.8294848e-05
1.9970451e-08
9.1356245e-08
2.8223187e-05
2.0259992e-08
8.994883e-08
2.8152746e-05
2.0530708e-08
8.8565924e-08
2.8083503e-05
2.0782623e-08
8.720182e-08
2.8015447e-05
2.1017522e-08
8.5848707e-08
2.7948582e-05
2.1240704e-08
8.4495811e-08
2.7882937e-05
2.146272e-08
8.312949e-08
2.7818575e-05
2.1699983e-08
8.1736535e-08
2.7755588e-05
2.1969277e-08
8.0324374e-08
2.7694014e-05
2.2266123e-08
7.901605e-08
2.7633299e-05
2.2506284e-08
7.8480657e-08
2.7571004e-05
2.2393432e-08
8.0599433e-08
2.099311e-08
1.0779943e-07
0.00010489986
2.7443378e-07
6.5049155e-06
9.8802772e-05
5.0716634e-07
6.6362236e-06
9.329591e-05
6.5854978e-07
6.1922972e-06
8.8116302e-05
7.2902549e-07
5.9257148e-06
8.3248198e-05