/*--------------------------------*- C++ -*----------------------------------*\
  =========                 |
  \\      /  F ield         | OpenFOAM: The Open Source CFD Toolbox
   \\    /   O peration     | Website:  https://openfoam.org
    \\  /    A nd           | Version:  7
     \\/     M anipulation  |
\*---------------------------------------------------------------------------*/
FoamFile
{
    version     2.0;
    format      ascii;
    class       surfaceScalarField;
    location    "1050/water";
    object      phi;
}
// * * * * * * * * * * * * * * * * * * * * * * * * * * * * * * * * * * * * * //

dimensions      [1 0 -1 0 0 0 0];

internalField   nonuniform List<scalar> 
156660
(
9.9057239e-05
6.0010402e-06
6.0528092e-06
8.6847498e-05
6.0555113e-06
6.1542307e-06
7.5687891e-05
5.5111362e-06
5.6484701e-06
6.5441704e-05
5.0404181e-06
5.2057689e-06
5.6267661e-05
4.4956436e-06
4.6783991e-06
4.8318019e-05
3.8797648e-06
4.0698777e-06
4.1624776e-05
3.2524448e-06
3.4407982e-06
3.6124897e-05
2.660462e-06
2.839417e-06
3.1692235e-05
2.1345127e-06
2.2981489e-06
2.8162841e-05
1.6926975e-06
1.8366964e-06
2.5361437e-05
1.3399933e-06
1.4614113e-06
2.3124664e-05
1.0698477e-06
1.1669257e-06
2.1315127e-05
8.6875419e-07
9.4078226e-07
1.9825714e-05
7.2110065e-07
7.6831272e-07
1.8577278e-05
6.1248246e-07
6.3595307e-07
1.7513255e-05
5.3125218e-07
5.3277149e-07
1.6593744e-05
4.6879723e-07
4.5071349e-07
1.5790433e-05
4.1913719e-07
3.8417384e-07
1.5082784e-05
3.7829067e-07
3.2935848e-07
1.4455417e-05
3.4367128e-07
2.8369563e-07
1.3896409e-05
3.1361408e-07
2.4539333e-07
1.339622e-05
2.8704451e-07
2.1314451e-07
1.2947015e-05
2.6326033e-07
1.8594508e-07
1.2542237e-05
2.4179367e-07
1.6298461e-07
1.2176318e-05
2.2232205e-07
1.435969e-07
1.1844484e-05
2.046148e-07
1.2721883e-07
1.1542609e-05
1.8849494e-07
1.1337971e-07
1.1267116e-05
1.7381575e-07
1.0167794e-07
1.1014892e-05
1.604627e-07
9.176083e-08
1.0783252e-05
1.4833969e-07
8.330061e-08
1.0569851e-05
1.3734904e-07
7.6052135e-08
1.0372614e-05
1.2738863e-07
6.9848347e-08
1.0189731e-05
1.1836809e-07
6.4514834e-08
1.001963e-05
1.1020448e-07
5.9896612e-08
9.8609388e-06
1.0281922e-07
5.5871632e-08
9.7124594e-06
9.6137939e-08
5.2341354e-08
9.5731439e-06
9.0091166e-08
4.922435e-08
9.4420758e-06
8.4614453e-08
4.6453567e-08
9.3184531e-06
7.9648659e-08
4.3974117e-08
9.2015723e-06
7.513971e-08
4.1741049e-08
9.0908166e-06
7.1038175e-08
3.971756e-08
8.9856431e-06
6.7301132e-08
3.7872302e-08
8.8855707e-06
6.3894278e-08
3.6178162e-08
8.7901757e-06
6.0780119e-08
3.4614914e-08
8.6990829e-06
5.7926172e-08
3.3166639e-08
8.611959e-06
5.530372e-08
3.1820108e-08
8.5285072e-06
5.288743e-08
3.0564403e-08
8.4484618e-06
5.0655086e-08
2.9390288e-08
8.3715847e-06
4.8587048e-08
2.8290028e-08
8.2976613e-06
4.6666169e-08
2.725722e-08
8.2264975e-06
4.4877453e-08
2.6286442e-08
8.1579202e-06
4.3208775e-08
2.5368506e-08
8.0917731e-06
4.1649035e-08
2.4498023e-08
8.0279107e-06
4.0186984e-08
2.3675334e-08
7.9662005e-06
3.8812679e-08
2.2897535e-08
7.9065219e-06
3.7518391e-08
2.2160225e-08
7.8487639e-06
3.6297852e-08
2.1460129e-08
7.7928241e-06
3.5145158e-08
2.0794598e-08
7.7386083e-06
3.4054672e-08
2.0161181e-08
7.6860292e-06
3.3021368e-08
1.9557685e-08
7.6350062e-06
3.204081e-08
1.8982276e-08
7.5854641e-06
3.110907e-08
1.843307e-08
7.537333e-06
3.022264e-08
1.7908503e-08
7.4905477e-06
2.9378244e-08
1.7406989e-08
7.4450475e-06
2.8572999e-08
1.6927182e-08
7.4007755e-06
2.7804244e-08
1.6467806e-08
7.3576783e-06
2.7069567e-08
1.6027636e-08
7.3157056e-06
2.6367039e-08
1.5605628e-08
7.2748103e-06
2.5694651e-08
1.5200672e-08
7.2349479e-06
2.5050573e-08
1.4811839e-08
7.1960766e-06
2.4433084e-08
1.4438227e-08
7.158157e-06
2.3840644e-08
1.4078928e-08
7.1211518e-06
2.3271888e-08
1.3733296e-08
7.0850258e-06
2.2725497e-08
1.3400507e-08
7.0497456e-06
2.2200214e-08
1.307994e-08
7.0152798e-06
2.169492e-08
1.2770883e-08
6.9815984e-06
2.1208606e-08
1.2472748e-08
6.9486732e-06
2.0740243e-08
1.2184918e-08
6.9164775e-06
2.0288989e-08
1.1906798e-08
6.8849857e-06
1.9853976e-08
1.1637838e-08
6.8541739e-06
1.943436e-08
1.1377465e-08
6.8240193e-06
1.9029485e-08
1.112511e-08
6.7945006e-06
1.8638497e-08
1.0880258e-08
6.7655975e-06
1.8260772e-08
1.0642307e-08
6.7372912e-06
1.7895572e-08
1.041079e-08
6.709564e-06
1.7542082e-08
1.0185083e-08
6.6823995e-06
1.7199628e-08
9.9648682e-09
6.6557824e-06
1.686729e-08
9.7498084e-09
6.6296983e-06
1.6544157e-08
9.5399815e-09
6.604133e-06
1.6229274e-08
9.3360107e-09
6.5790714e-06
1.5921968e-08
9.1396909e-09
6.554494e-06
1.5622314e-08
8.9550924e-09
6.5303708e-06
1.5332561e-08
8.790648e-09
6.5066467e-06
1.5060456e-08
8.6636341e-09
6.4832094e-06
1.4827797e-08
8.6095292e-09
6.4598103e-06
1.469307e-08
8.7060079e-09
6.4358387e-06
1.4826404e-08
9.1451456e-09
6.4096302e-06
1.5741752e-08
1.0466746e-08
6.3782855e-06
1.8026566e-08
1.3318209e-08
3.2300204e-08
2.7923555e-08
0.00010646494
4.1872385e-06
6.4599816e-06
0.0001002019
5.695418e-06
6.6231353e-06
9.3659588e-05
5.7790389e-06
6.2744098e-06
8.7011589e-05
5.6514782e-06
6.0369387e-06
8.0422927e-05
5.366912e-06
5.7173941e-06
7.4094022e-05
4.9022832e-06
5.3063862e-06
6.8167026e-05
4.3278135e-06
4.8516272e-06
6.2722565e-05
3.717891e-06
4.387032e-06
5.7799049e-05
3.1243144e-06
3.9337145e-06
5.3403345e-05
2.5820689e-06
3.5063329e-06
4.9517402e-05
2.1121062e-06
3.1138299e-06
4.6105482e-05
1.7220197e-06
2.7597474e-06
4.3121558e-05
1.4089355e-06
2.4437429e-06
4.0515558e-05
1.1637552e-06
2.163346e-06
3.8237948e-05
9.748585e-07
1.9152336e-06
3.6242683e-05
8.3055977e-07
1.6959573e-06
3.4488759e-05
7.2043695e-07
1.5022849e-06
3.2940716e-05
6.3586293e-07
1.3313172e-06
3.1568463e-05
5.7005004e-07
1.1804931e-06
3.0346733e-05
5.1784897e-07
1.0475521e-06
2.9254398e-05
4.7545957e-07
9.3049033e-07
2.8273782e-05
4.4013958e-07
8.2752023e-07
2.7390054e-05
4.0994893e-07
7.3704007e-07
2.6590699e-05
3.8353955e-07
6.5760856e-07
2.5865102e-05
3.5998888e-07
5.8793071e-07
2.5204198e-05
3.3867633e-07
5.2684263e-07
2.4600205e-05
3.1918358e-07
4.7330347e-07
2.4046429e-05
3.0120192e-07
4.2639014e-07
2.3537073e-05
2.8455208e-07
3.8526713e-07
2.3067119e-05
2.6911102e-07
3.491824e-07
2.2632208e-05
2.5478167e-07
3.1747787e-07
2.2228528e-05
2.4147383e-07
2.8959531e-07
2.1852744e-05
2.2911074e-07
2.6504124e-07
2.1501947e-05
2.1762893e-07
2.4337256e-07
2.1173591e-05
2.0696954e-07
2.2420571e-07
2.0865444e-05
1.9707568e-07
2.0720867e-07
2.0575549e-05
1.8789253e-07
1.9209397e-07
2.0302183e-05
1.7936723e-07
1.7861346e-07
2.0043829e-05
1.7144906e-07
1.6655323e-07
1.979915e-05
1.6408983e-07
1.5572944e-07
1.956696e-05
1.572438e-07
1.4598402e-07
1.934621e-05
1.5086893e-07
1.3718218e-07
1.9135969e-05
1.4492654e-07
1.292088e-07
1.8935407e-05
1.3937909e-07
1.2196307e-07
1.8743783e-05
1.3419232e-07
1.1535762e-07
1.8560435e-05
1.2933507e-07
1.0931726e-07
1.8384766e-05
1.2477909e-07
1.0377718e-07
1.8216241e-05
1.2049853e-07
9.8681302e-08
1.8054377e-05
1.1647012e-07
9.3981323e-08
1.7898734e-05
1.126729e-07
8.9635439e-08
1.7748917e-05
1.0908821e-07
8.5607018e-08
1.7604563e-05
1.0570004e-07
8.186243e-08
1.7465345e-05
1.0249338e-07
7.837324e-08
1.7330962e-05
9.9452999e-08
7.5116975e-08
1.7201138e-05
9.6564389e-08
7.2072709e-08
1.7075619e-05
9.3816652e-08
6.9221131e-08
1.695417e-05
9.1201114e-08
6.6545102e-08
1.6836577e-05
8.8709109e-08
6.402953e-08
1.6722638e-05
8.6331978e-08
6.166105e-08
1.661217e-05
8.4061773e-08
5.9427673e-08
1.6505001e-05
8.1891551e-08
5.7318812e-08
1.640097e-05
7.9814942e-08
5.5324825e-08
1.6299929e-05
7.7826139e-08
5.343713e-08
1.620174e-05
7.5919864e-08
5.1647914e-08
1.6106272e-05
7.4091046e-08
4.9950104e-08
1.6013403e-05
7.2335024e-08
4.8337362e-08
1.5923022e-05
7.0647719e-08
4.6803881e-08
1.5835019e-05
6.9025726e-08
4.5344272e-08
1.5749294e-05
6.746552e-08
4.3953704e-08
1.5665753e-05
6.5963758e-08
4.2627701e-08
1.5584307e-05
6.4517342e-08
4.1362178e-08
1.5504871e-05
6.3123405e-08
4.0153377e-08
1.5427365e-05
6.177928e-08
3.8997806e-08
1.5351716e-05
6.0482542e-08
3.7892283e-08
1.5277852e-05
5.9230818e-08
3.683384e-08
1.5205705e-05
5.8021996e-08
3.5819737e-08
1.5135212e-05
5.6854027e-08
3.4847355e-08
1.5066313e-05
5.572497e-08
3.3914342e-08
1.499895e-05
5.4633118e-08
3.3018401e-08
1.493307e-05
5.3576729e-08
3.2157442e-08
1.4868621e-05
5.2554199e-08
3.1329413e-08
1.4805554e-05
5.1563936e-08
3.0532428e-08
1.4743823e-05
5.0604487e-08
2.9764703e-08
1.4683385e-05
4.967428e-08
2.9024397e-08
1.4624199e-05
4.8771803e-08
2.8309887e-08
1.4566226e-05
4.7895434e-08
2.7619554e-08
1.4509431e-05
4.7043482e-08
2.6952011e-08
1.4453778e-05
4.6214099e-08
2.6305753e-08
1.4399237e-05
4.5405385e-08
2.5679864e-08
1.4345777e-05
4.4615663e-08
2.5073738e-08
1.4293367e-05
4.3844238e-08
2.4487711e-08
1.4241972e-05
4.3092865e-08
2.3923745e-08
1.4191548e-05
4.2369881e-08
2.3387152e-08
1.4142019e-05
4.1699296e-08
2.2889656e-08
1.4093249e-05
4.1141615e-08
2.2456659e-08
1.4044951e-05
4.0844637e-08
2.2146545e-08
1.3996485e-05
4.1169167e-08
2.2123071e-08
1.3946229e-05
4.3012298e-08
2.2985415e-08
1.389015e-05
4.8540254e-08
2.556578e-08
6.3281542e-08
5.0000831e-08
0.00010603565
2.7876425e-06
6.4750379e-06
0.00010074799
4.4145413e-06
6.5685292e-06
9.5493515e-05
4.8594028e-06
6.1741158e-06
9.0256432e-05
4.930369e-06
5.9581921e-06
8.5101366e-05
4.8311767e-06
5.6908011e-06
8.0102875e-05
4.5561761e-06
5.3445981e-06
7.5322251e-05
4.1469521e-06
4.9614853e-06
7.0803266e-05
3.6678925e-06
4.5689837e-06
6.6576264e-05
3.1701903e-06
4.1811255e-06
6.2660725e-05
2.690011e-06
3.8075976e-06
5.9065443e-05
2.2519319e-06
3.4554566e-06
5.5788936e-05
1.8697304e-06
3.1287958e-06
5.2820978e-05
1.5477473e-06
2.8291458e-06
5.014479e-05
1.2836302e-06
2.5563139e-06
4.7739304e-05
1.07123e-06
2.3091141e-06
4.5581183e-05
9.0281506e-07
2.085866e-06
4.3646423e-05
7.7048778e-07
1.884709e-06
4.1911533e-05
6.6697371e-07
1.7037793e-06
4.0354306e-05
5.8598195e-07
1.541295e-06
3.8954268e-05
5.2230223e-07
1.3955849e-06
3.769288e-05
4.7175607e-07
1.2650911e-06
3.6553576e-05
4.3107983e-07
1.1483634e-06
3.552169e-05
3.9778206e-07
1.0440533e-06
3.4584322e-05
3.6999882e-07
9.5090829e-07
3.3730181e-05
3.4635985e-07
8.6777017e-07
3.2949411e-05
3.2587762e-07
7.9356869e-07
3.223342e-05
3.0784048e-07
7.2733483e-07
3.1574711e-05
2.9172987e-07
6.6818103e-07
3.0966769e-05
2.7719269e-07
6.1530128e-07
3.0403928e-05
2.6398098e-07
5.6797018e-07
2.9881258e-05
2.5190848e-07
5.2554316e-07
2.9394455e-05
2.4082712e-07
4.8745002e-07
2.8939761e-05
2.3062159e-07
4.531833e-07
2.8513895e-05
2.2120151e-07
4.2229385e-07
2.8113985e-05
2.1249192e-07
3.9438673e-07
2.7737518e-05
2.0442797e-07
3.6911489e-07
2.7382285e-05
1.9695189e-07
3.4617383e-07
2.7046344e-05
1.9001175e-07
3.2529679e-07
2.6727982e-05
1.8355994e-07
3.0625045e-07
2.6425689e-05
1.7755275e-07
2.8883084e-07
2.6138123e-05
1.7195003e-07
2.728598e-07
2.5864094e-05
1.6671515e-07
2.5818181e-07
2.5602546e-05
1.6181454e-07
2.446609e-07
2.535253e-05
1.5721709e-07
2.3217764e-07
2.51132e-05
1.5289442e-07
2.2062723e-07
2.4883797e-05
1.4882095e-07
2.0991774e-07
2.4663634e-05
1.4497369e-07
1.9996811e-07
2.4452094e-05
1.4133185e-07
1.9070709e-07
2.4248615e-05
1.3787694e-07
1.8207154e-07
2.405269e-05
1.3459266e-07
1.7400572e-07
2.3863854e-05
1.314646e-07
1.6645991e-07
2.3681684e-05
1.2848058e-07
1.5938925e-07
2.3505794e-05
1.2562918e-07
1.5275411e-07
2.3335829e-05
1.2289866e-07
1.4651969e-07
2.3171462e-05
1.2027635e-07
1.406546e-07
2.3012394e-05
1.177547e-07
1.351302e-07
2.2858345e-05
1.1532969e-07
1.2992044e-07
2.2709057e-05
1.1299538e-07
1.2500174e-07
2.2564291e-05
1.1074516e-07
1.2035288e-07
2.2423824e-05
1.0857347e-07
1.1595457e-07
2.2287451e-05
1.0647549e-07
1.1178923e-07
2.2154978e-05
1.0444701e-07
1.078408e-07
2.2026226e-05
1.024842e-07
1.0409458e-07
2.1901025e-05
1.0058354e-07
1.0053716e-07
2.1779218e-05
9.8741563e-08
9.7156151e-08
2.1660658e-05
9.6954898e-08
9.394025e-08
2.1545205e-05
9.5221305e-08
9.0879074e-08
2.1432729e-05
9.3538809e-08
8.796281e-08
2.1323107e-05
9.1905338e-08
8.5182622e-08
2.1216222e-05
9.0318498e-08
8.2530179e-08
2.1111965e-05
8.8776387e-08
7.9997903e-08
2.1010233e-05
8.7277106e-08
7.7578663e-08
2.0910927e-05
8.5818949e-08
7.5265871e-08
2.0813956e-05
8.440031e-08
7.3053433e-08
2.0719232e-05
8.3019694e-08
7.0935664e-08
2.0626671e-05
8.1675618e-08
6.8907193e-08
2.0536195e-05
8.0366805e-08
6.6963133e-08
2.0447729e-05
7.9091961e-08
6.509877e-08
2.0361203e-05
7.7849832e-08
6.3309749e-08
2.0276548e-05
7.6639244e-08
6.1592059e-08
2.0193702e-05
7.5458976e-08
5.9941731e-08
2.0112602e-05
7.4307955e-08
5.835522e-08
2.0033193e-05
7.3184913e-08
5.6829072e-08
1.9955419e-05
7.2088607e-08
5.5359989e-08
1.9879228e-05
7.1017623e-08
5.3944848e-08
1.9804572e-05
6.9970418e-08
5.2580728e-08
1.9731406e-05
6.8945251e-08
5.12648e-08
1.9659685e-05
6.7940081e-08
4.9994383e-08
1.9589371e-05
6.6952969e-08
4.8767083e-08
1.9520423e-05
6.5982326e-08
4.7580549e-08
1.9452807e-05
6.5027985e-08
4.6433082e-08
1.9386481e-05
6.4094092e-08
4.5323721e-08
1.9321404e-05
6.3194713e-08
4.4253096e-08
1.9257511e-05
6.2366341e-08
4.3225239e-08
1.9194705e-05
6.1695155e-08
4.2253146e-08
1.9132798e-05
6.1374058e-08
4.137739e-08
1.9071394e-05
6.1822424e-08
4.0750677e-08
1.9009424e-05
6.3924705e-08
4.1057622e-08
1.8944661e-05
6.9304697e-08
4.3998848e-08
7.9170957e-08
7.4661538e-08
0.0001054937
1.9169871e-06
6.4880407e-06
0.00010005365
3.2729596e-06
6.5816334e-06
9.4926077e-05
3.8288995e-06
6.1580776e-06
8.9946373e-05
3.9838109e-06
5.9262629e-06
8.5163276e-05
3.9595077e-06
5.6547657e-06
8.0619137e-05
3.7899369e-06
5.3103784e-06
7.6329462e-05
3.5015547e-06
4.9350725e-06
7.230016e-05
3.1412013e-06
4.5559928e-06
6.8534206e-05
2.7514802e-06
4.1846641e-06
6.5032983e-05
2.3633493e-06
3.8278852e-06
6.1795789e-05
1.9984144e-06
3.490711e-06
5.8818843e-05
1.670376e-06
3.176301e-06
5.6094717e-05
1.3858295e-06
2.886043e-06
5.3612488e-05
1.1457945e-06
2.6200649e-06
5.1358373e-05
9.476412e-07
2.3777043e-06
4.9316593e-05
7.8676782e-07
2.1578271e-06
4.7470246e-05
6.5779549e-07
1.9590391e-06
4.5802069e-05
5.5532541e-07
1.7798252e-06
4.4295042e-05
4.7437116e-07
1.6186378e-06
4.293283e-05
4.1056667e-07
1.473948e-06
4.1700078e-05
3.6023235e-07
1.3442759e-06
4.0582591e-05
3.2035741e-07
1.2282095e-06
3.956742e-05
2.8853732e-07
1.1244154e-06
3.8642881e-05
2.6289063e-07
1.0316467e-06
3.7798527e-05
2.4196988e-07
9.4874401e-07
3.7025076e-05
2.2467707e-07
8.7465173e-07
3.6314324e-05
2.1018901e-07
8.084041e-07
3.5659057e-05
1.9788605e-07
7.491104e-07
3.5052961e-05
1.8731582e-07
6.9597282e-07
3.4490519e-05
1.781487e-07
6.4827381e-07
3.3966922e-05
1.7013168e-07
6.0537438e-07
3.3477973e-05
1.6306725e-07
5.6670866e-07
3.3020016e-05
1.5680295e-07
5.3177544e-07
3.2589865e-05
1.5122054e-07
5.0013245e-07
3.218474e-05
1.4622558e-07
4.7139138e-07
3.1802215e-05
1.4174072e-07
4.4521231e-07
3.1440168e-05
1.377009e-07
4.212981e-07
3.1096739e-05
1.3405093e-07
3.9938922e-07
3.0770297e-05
1.3074294e-07
3.7925954e-07
3.0459402e-05
1.2773519e-07
3.6071195e-07
3.0162787e-05
1.2499093e-07
3.4357476e-07
2.9879325e-05
1.2247787e-07
3.2769851e-07
2.960802e-05
1.2016734e-07
3.129527e-07
2.934798e-05
1.1803382e-07
2.9922351e-07
2.9098408e-05
1.1605462e-07
2.8641137e-07
2.885859e-05
1.1420983e-07
2.7442906e-07
2.8627882e-05
1.1248188e-07
2.6319998e-07
2.8405701e-05
1.1085558e-07
2.5265686e-07
2.819152e-05
1.0931755e-07
2.4274024e-07
2.7984859e-05
1.0785648e-07
2.3339755e-07
2.7785279e-05
1.0646278e-07
2.2458211e-07
2.7592378e-05
1.0512873e-07
2.1625213e-07
2.740579e-05
1.0384738e-07
2.0837037e-07
2.7225174e-05
1.0261119e-07
2.0090363e-07
2.705022e-05
1.0140746e-07
1.9382257e-07
2.6880641e-05
1.0023385e-07
1.8710041e-07
2.6716166e-05
9.9092356e-08
1.8071225e-07
2.6556546e-05
9.7979972e-08
1.7463557e-07
2.6401548e-05
9.6892538e-08
1.6885014e-07
2.6250957e-05
9.5827071e-08
1.6333743e-07
2.610457e-05
9.478171e-08
1.5808045e-07
2.5962199e-05
9.3754753e-08
1.530636e-07
2.5823666e-05
9.2744887e-08
1.4827261e-07
2.5688804e-05
9.1751014e-08
1.4369413e-07
2.5557458e-05
9.0771797e-08
1.3931601e-07
2.5429481e-05
8.9805216e-08
1.3512694e-07
2.5304734e-05
8.8851504e-08
1.3111645e-07
2.5183087e-05
8.7911271e-08
1.2727468e-07
2.5064416e-05
8.6983932e-08
1.2359244e-07
2.4948604e-05
8.606888e-08
1.2006118e-07
2.4835542e-05
8.5165756e-08
1.1667302e-07
2.4725124e-05
8.4274297e-08
1.134205e-07
2.4617252e-05
8.3394272e-08
1.1029658e-07
2.4511832e-05
8.2525457e-08
1.0729479e-07
2.4408775e-05
8.1667726e-08
1.0440897e-07
2.4307997e-05
8.0820948e-08
1.0163343e-07
2.4209416e-05
7.9984991e-08
9.8962653e-08
2.4112956e-05
7.9159706e-08
9.6391535e-08
2.4018546e-05
7.8345016e-08
9.3915284e-08
2.3926115e-05
7.7540708e-08
9.1529307e-08
2.3835598e-05
7.6746563e-08
8.9229234e-08
2.3746933e-05
7.5962339e-08
8.7011055e-08
2.366006e-05
7.5187657e-08
8.4870733e-08
2.3574922e-05
7.4421976e-08
8.2804545e-08
2.3491466e-05
7.3664618e-08
8.0808878e-08
2.3409641e-05
7.2914632e-08
7.8880359e-08
2.33294e-05
7.2170668e-08
7.7015487e-08
2.3250698e-05
7.1431284e-08
7.5211017e-08
2.3173492e-05
7.0694835e-08
7.3463648e-08
2.3097745e-05
6.9960203e-08
7.1770044e-08
2.3023418e-05
6.9227949e-08
7.0127005e-08
2.2950477e-05
6.850348e-08
6.8531165e-08
2.2878889e-05
6.7802886e-08
6.6979682e-08
2.2808619e-05
6.7165083e-08
6.5471559e-08
2.2739625e-05
6.6675269e-08
6.4013334e-08
2.267185e-05
6.6507057e-08
6.2642284e-08
2.2605149e-05
6.6990713e-08
6.1532367e-08
2.2538888e-05
6.868602e-08
6.1499921e-08
2.2471121e-05
7.2226988e-08
6.4845123e-08
7.6722852e-08
9.8461346e-08
0.0001051979
1.3340884e-06
6.4961221e-06
9.9496561e-05
2.3731022e-06
6.6011947e-06
9.4262459e-05
2.9019223e-06
6.1610799e-06
8.9251186e-05
3.0856642e-06
5.9094196e-06
8.4493498e-05
3.0947347e-06
5.6224614e-06
8.0033635e-05
2.9846657e-06
5.265134e-06
7.5876907e-05
2.7790155e-06
4.8792667e-06
7.2014635e-05
2.5106844e-06
4.4927895e-06
6.8436293e-05
2.2128729e-06
4.116949e-06
6.5131387e-05
1.9107259e-06
3.7575291e-06
6.208941e-05
1.6217321e-06
3.4186596e-06
5.9299432e-05
1.3573877e-06
3.1029661e-06
5.6749589e-05
1.1240344e-06
2.8116387e-06
5.4426788e-05
9.2377948e-07
2.5448158e-06
5.2316754e-05
7.5572796e-07
2.3019466e-06
5.0404313e-05
6.1717856e-07
2.0820302e-06
4.8673788e-05
5.0454351e-07
1.8837772e-06
4.7109414e-05
4.1397181e-07
1.7057274e-06
4.5695713e-05
3.4173649e-07
1.5463363e-06
4.4417792e-05
2.8445146e-07
1.4040359e-06
4.3261575e-05
2.3917111e-07
1.2772781e-06
4.2213952e-05
2.0341501e-07
1.1645652e-06
4.1262871e-05
1.7514741e-07
1.0644719e-06
4.039737e-05
1.5273234e-07
9.7565898e-07
3.9607583e-05
1.3487529e-07
8.9688142e-07
3.8884688e-05
1.2055567e-07
8.270164e-07
3.8220848e-05
1.0901089e-07
7.6501856e-07
3.7609155e-05
9.9633829e-08
7.0994485e-07
3.7043542e-05
9.1977455e-08
6.6095092e-07
3.6518702e-05
8.5705832e-08
6.1728288e-07
3.6030009e-05
8.0552408e-08
5.782731e-07
3.5573433e-05
7.6308302e-08
5.4333414e-07
3.5145475e-05
7.2811262e-08
5.1195029e-07
3.4743091e-05
6.9934109e-08
4.8367024e-07
3.4363641e-05
6.7575439e-08
4.5810069e-07
3.4004828e-05
6.5652842e-08
4.3489996e-07
3.3664659e-05
6.4098588e-08
4.1377211e-07
3.3341393e-05
6.2855907e-08
3.9446096e-07
3.3033513e-05
6.1877039e-08
3.7674529e-07
3.2739693e-05
6.1121105e-08
3.6043424e-07
3.2458768e-05
6.0553056e-08
3.4536327e-07
3.2189712e-05
6.0142685e-08
3.3139058e-07
3.1931622e-05
5.9863642e-08
3.1839376e-07
3.1683696e-05
5.9693163e-08
3.0626733e-07
3.1445219e-05
5.9611201e-08
2.9492009e-07
3.1215555e-05
5.9600631e-08
2.8427317e-07
3.0994132e-05
5.9646519e-08
2.7425807e-07
3.0780436e-05
5.9736143e-08
2.6481538e-07
3.0574002e-05
5.9858657e-08
2.5589333e-07
3.0374407e-05
6.0004938e-08
2.474466e-07
3.0181266e-05
6.0167648e-08
2.3943547e-07
2.9994229e-05
6.0341281e-08
2.3182487e-07
2.9812971e-05
6.0521836e-08
2.2458373e-07
2.9637193e-05
6.0704436e-08
2.1768457e-07
2.9466629e-05
6.0867257e-08
2.1110458e-07
2.9301024e-05
6.1016988e-08
2.0482177e-07
2.9140139e-05
6.1160857e-08
1.9881573e-07
2.8983756e-05
6.1294936e-08
1.930684e-07
2.8831669e-05
6.141543e-08
1.8756388e-07
2.8683688e-05
6.1520955e-08
1.8228765e-07
2.8539633e-05
6.1610551e-08
1.7722633e-07
2.8399336e-05
6.168378e-08
1.7236783e-07
2.8262639e-05
6.1740481e-08
1.677009e-07
2.8129394e-05
6.1780716e-08
1.6321519e-07
2.7999461e-05
6.1803926e-08
1.5890123e-07
2.7872708e-05
6.1807393e-08
1.5475037e-07
2.7749012e-05
6.1793606e-08
1.5075444e-07
2.7628253e-05
6.176485e-08
1.469056e-07
2.7510319e-05
6.1720997e-08
1.431966e-07
2.7395105e-05
6.1662116e-08
1.3962085e-07
2.728251e-05
6.1588613e-08
1.3617202e-07
2.7172439e-05
6.1501043e-08
1.3284424e-07
2.7064802e-05
6.1399968e-08
1.2963193e-07
2.6959511e-05
6.1285918e-08
1.2652994e-07
2.6856486e-05
6.1159499e-08
1.2353324e-07
2.6755649e-05
6.1021279e-08
1.2063732e-07
2.6656924e-05
6.0871845e-08
1.1783769e-07
2.6560242e-05
6.07117e-08
1.1513014e-07
2.6465535e-05
6.0541389e-08
1.1251076e-07
2.6372738e-05
6.0361344e-08
1.0997582e-07
2.6281791e-05
6.0171943e-08
1.0752158e-07
2.6192636e-05
5.9973553e-08
1.0514471e-07
2.6105215e-05
5.9766293e-08
1.0284182e-07
2.6019477e-05
5.9550233e-08
1.0060972e-07
2.5935371e-05
5.932516e-08
9.8445273e-08
2.585285e-05
5.9090481e-08
9.6345366e-08
2.5771868e-05
5.8845474e-08
9.4306935e-08
2.5692384e-05
5.8588971e-08
9.2326751e-08
2.5614357e-05
5.8319781e-08
9.0401442e-08
2.5537753e-05
5.8037054e-08
8.8527324e-08
2.5462539e-05
5.7741632e-08
8.6700194e-08
2.5388689e-05
5.7438408e-08
8.4915147e-08
2.5316184e-05
5.7141438e-08
8.3166619e-08
2.5245017e-05
5.6882578e-08
8.1449618e-08
2.51752e-05
5.6726008e-08
7.9765796e-08
2.510677e-05
5.6787906e-08
7.8149185e-08
2.5039729e-05
5.7251624e-08
7.6780982e-08
2.4973573e-05
5.8330962e-08
7.6510238e-08
2.4906079e-05
5.9989492e-08
7.9732161e-08
6.0715008e-08
1.1287823e-07
0.00010503672
9.0789372e-07
6.5005614e-06
9.9140653e-05
1.6524914e-06
6.6166801e-06
9.3788329e-05
2.0825241e-06
6.1717217e-06
8.8708526e-05
2.2549373e-06
5.91053e-06
8.3909682e-05
2.278404e-06
5.6151748e-06
7.9437109e-05
2.2074821e-06
5.2497564e-06
7.5296201e-05
2.0645348e-06
4.8553893e-06
7.1474034e-05
1.8722543e-06
4.460597e-06
6.7955013e-05
1.6547667e-06
4.0771269e-06
6.4723621e-05
1.4313505e-06
3.7107669e-06
6.1764423e-05
1.2154297e-06
3.3655007e-06
5.9062056e-05
1.015864e-06
3.0438911e-06
5.6601108e-05
8.3782744e-07
2.7471548e-06
5.4365944e-05
6.8344648e-07
2.475497e-06
5.2340648e-05
5.5258527e-07
2.2284383e-06
5.0509125e-05
4.4366549e-07
2.0050361e-06
4.8855299e-05
3.5433462e-07
1.8040352e-06
4.7363353e-05
2.8193595e-07
1.6239821e-06
4.6017963e-05
2.2381347e-07
1.4633127e-06
4.4804502e-05
1.7749382e-07
1.320418e-06
4.3709199e-05
1.4078086e-07
1.1936935e-06
4.2719248e-05
1.1179153e-07
1.081575e-06
4.1822875e-05
8.8954541e-08
9.8256584e-07
4.1009364e-05
7.0988006e-08
8.952547e-07
4.0269054e-05
5.686182e-08
8.1832381e-07
3.9593306e-05
4.5719108e-08
7.5058474e-07
3.8974405e-05
3.697786e-08
6.9093437e-07
3.8405585e-05
3.0067381e-08
6.3838632e-07
3.7880869e-05
2.4650832e-08
5.9204242e-07
3.7395029e-05
2.0439968e-08
5.5110602e-07
3.6943514e-05
1.7190289e-08
5.1487715e-07
3.6522366e-05
1.4716738e-08
4.8273959e-07
3.6128148e-05
1.2874747e-08
4.5415392e-07
3.5757883e-05
1.154986e-08
4.2864945e-07
3.5408991e-05
1.0650761e-08
4.0581705e-07
3.5079238e-05
1.0103592e-08
3.853023e-07
3.4766689e-05
9.8482462e-09
3.6679881e-07
3.4469668e-05
9.8351059e-09
3.5004234e-07
3.4186716e-05
1.0022918e-08
3.3480553e-07
3.3916567e-05
1.0377021e-08
3.2089285e-07
3.3658116e-05
1.0868071e-08
3.081366e-07
3.3410395e-05
1.147097e-08
2.9639285e-07
3.3172556e-05
1.2164245e-08
2.8553826e-07
3.2943852e-05
1.2929297e-08
2.7546716e-07
3.2723625e-05
1.3750153e-08
2.6608892e-07
3.2511286e-05
1.4613075e-08
2.5732571e-07
3.2306316e-05
1.5506226e-08
2.4911067e-07
3.2108246e-05
1.641957e-08
2.4138624e-07
3.1916658e-05
1.7344645e-08
2.3410269e-07
3.1731171e-05
1.8274335e-08
2.272171e-07
3.1551444e-05
1.9203178e-08
2.2069214e-07
3.1377162e-05
2.012772e-08
2.1449506e-07
3.1208038e-05
2.104866e-08
2.0859678e-07
3.1043799e-05
2.1972757e-08
2.0297055e-07
3.0884232e-05
2.2827839e-08
1.9760739e-07
3.0729103e-05
2.3662979e-08
1.9248228e-07
3.05782e-05
2.4489987e-08
1.8757381e-07
3.0431331e-05
2.5296268e-08
1.8286765e-07
3.0288318e-05
2.6077956e-08
1.7835077e-07
3.0148994e-05
2.6834282e-08
1.7401105e-07
3.0013202e-05
2.7564697e-08
1.6983753e-07
2.9880797e-05
2.8268955e-08
1.6582023e-07
2.975164e-05
2.8947451e-08
1.6195013e-07
2.96256e-05
2.9600809e-08
1.5821897e-07
2.9502557e-05
3.0228591e-08
1.546192e-07
2.9382396e-05
3.0823636e-08
1.5114467e-07
2.9265007e-05
3.139314e-08
1.4778873e-07
2.9150287e-05
3.1939608e-08
1.4454537e-07
2.9038137e-05
3.2461917e-08
1.4140903e-07
2.8928465e-05
3.296007e-08
1.3837463e-07
2.8821181e-05
3.3434707e-08
1.354375e-07
2.8716203e-05
3.3886345e-08
1.325933e-07
2.8613449e-05
3.4315502e-08
1.2983787e-07
2.8512845e-05
3.4722864e-08
1.2716736e-07
2.8414317e-05
3.510898e-08
1.2457814e-07
2.8317797e-05
3.5474432e-08
1.2206682e-07
2.8223219e-05
3.5819865e-08
1.196301e-07
2.813052e-05
3.6145879e-08
1.1726494e-07
2.803964e-05
3.6453072e-08
1.1496841e-07
2.7950522e-05
3.67419e-08
1.1273772e-07
2.7863111e-05
3.70128e-08
1.1057028e-07
2.7777354e-05
3.7266258e-08
1.0846342e-07
2.7693204e-05
3.7502465e-08
1.0641471e-07
2.761061e-05
3.7721587e-08
1.0442174e-07
2.752953e-05
3.7923547e-08
1.0248199e-07
2.7449919e-05
3.810796e-08
1.0059304e-07
2.7371738e-05
3.8274267e-08
9.8752297e-08
2.7294949e-05
3.8421523e-08
9.6956895e-08
2.7219516e-05
3.8548742e-08
9.5203624e-08
2.714541e-05
3.8655133e-08
9.3488626e-08
2.7072603e-05
3.8741148e-08
9.1806958e-08
2.7001079e-05
3.8810285e-08
9.0152305e-08
2.6930832e-05
3.887217e-08
8.8516583e-08
2.6861876e-05
3.894742e-08
8.6890523e-08
2.679426e-05
3.9073495e-08
8.526917e-08
2.6728065e-05
3.9306963e-08
8.3675949e-08
2.6663337e-05
3.9708333e-08
8.2271157e-08
2.659956e-05
4.0272003e-08
8.1836155e-08
2.6534295e-05
4.0698016e-08
8.4555716e-08
3.9620843e-08
1.1507128e-07
0.00010494757
5.6811084e-07
6.5033077e-06
9.8925416e-05
1.0462983e-06
6.6283517e-06
9.3480449e-05
1.3439845e-06
6.1835065e-06
8.8341777e-05
1.4751324e-06
5.9184763e-06
8.3502084e-05
1.4993911e-06
5.6187065e-06
7.9004057e-05
1.4572411e-06
5.2482679e-06
7.4853978e-05
1.3667382e-06
4.8478757e-06
7.1037378e-05
1.2423973e-06
4.4464569e-06
6.7536063e-05
1.0997693e-06
4.0563127e-06
6.4331998e-05
9.5192359e-07
3.683491e-06
6.1407318e-05
8.0805757e-07
3.3320524e-06
5.8744339e-05
6.7422202e-07
3.0046209e-06
5.6325632e-05
5.5404398e-07
2.7024907e-06
5.4133973e-05
4.4916748e-07
2.4259383e-06
5.2152298e-05
3.5972404e-07
2.174536e-06
5.0363747e-05
2.8484512e-07
1.9473717e-06
4.875178e-05
2.2310005e-07
1.7432015e-06
4.7300339e-05
1.728117e-07
1.5605647e-06
4.5994012e-05
1.3226574e-07
1.3978748e-06
4.4818177e-05
9.9840045e-08
1.2534891e-06
4.3759121e-05
7.407562e-08
1.1257614e-06
4.2804123e-05
5.3707646e-08
1.0130814e-06
4.1941503e-05
3.7671205e-08
9.1390377e-07
4.1160627e-05
2.5096454e-08
8.2676733e-07
4.0451891e-05
1.5294173e-08
7.5030388e-07
3.980679e-05
7.5281603e-09
6.8329175e-07
3.9217543e-05
1.6727702e-09
6.2455202e-07
3.8677513e-05
-3.0331045e-09
5.731308e-07
3.8180739e-05
-6.6486367e-09
5.2807352e-07
3.7722004e-05
-9.3595067e-09
4.8853448e-07
3.7296777e-05
-1.1371795e-08
4.5378926e-07
3.6901112e-05
-1.2818251e-08
4.2319913e-07
3.6531588e-05
-1.3805312e-08
3.9620481e-07
3.6185236e-05
-1.4417499e-08
3.7231876e-07
3.5859491e-05
-1.4721919e-08
3.5111775e-07
3.5552132e-05
-1.4772623e-08
3.3223577e-07
3.5261237e-05
-1.4613926e-08
3.153573e-07
3.4985143e-05
-1.4282187e-08
3.0021089e-07
3.472241e-05
-1.3807676e-08
2.8656376e-07
3.4471787e-05
-1.3215856e-08
2.7421632e-07
3.4232185e-05
-1.2528211e-08
2.6299768e-07
3.4002657e-05
-1.1762798e-08
2.5276173e-07
3.3782373e-05
-1.0935274e-08
2.4338334e-07
3.3570606e-05
-1.0058801e-08
2.3475555e-07
3.3366714e-05
-9.1447341e-09
2.2678673e-07
3.3170131e-05
-8.2028511e-09
2.193983e-07
3.2980356e-05
-7.2412204e-09
2.12523e-07
3.279694e-05
-6.2668868e-09
2.0610281e-07
3.2619482e-05
-5.2855539e-09
2.0008781e-07
3.2447623e-05
-4.3018543e-09
1.9443477e-07
3.228104e-05
-3.3190743e-09
1.8910584e-07
3.2119438e-05
-2.3383183e-09
1.8406735e-07
3.1962554e-05
-1.353075e-09
1.7928646e-07
3.1810075e-05
-2.7632729e-10
1.7472766e-07
3.1661878e-05
5.8585259e-10
1.7043905e-07
3.1517732e-05
1.4356388e-09
1.6637294e-07
3.1377429e-05
2.3037983e-09
1.624896e-07
3.1240792e-05
3.1586211e-09
1.5877487e-07
3.1107656e-05
3.9969776e-09
1.552172e-07
3.0977867e-05
4.817144e-09
1.5180549e-07
3.0851284e-05
5.6179663e-09
1.485297e-07
3.0727773e-05
6.3990758e-09
1.4538078e-07
3.0607209e-05
7.1609377e-09
1.4235054e-07
3.0489473e-05
7.9059694e-09
1.3943119e-07
3.037445e-05
8.6357739e-09
1.3661578e-07
3.0262049e-05
9.3206576e-09
1.3390395e-07
3.0152163e-05
9.9938013e-09
1.3128563e-07
3.0044697e-05
1.065041e-08
1.2875513e-07
2.9939564e-05
1.1286781e-08
1.2630827e-07
2.983668e-05
1.1903223e-08
1.2394086e-07
2.9735965e-05
1.2500181e-08
1.2164884e-07
2.9637345e-05
1.3077888e-08
1.1942843e-07
2.9540748e-05
1.3636719e-08
1.1727617e-07
2.9446105e-05
1.4177041e-08
1.1518885e-07
2.9353352e-05
1.4699162e-08
1.1316337e-07
2.9262425e-05
1.520351e-08
1.1119702e-07
2.9173268e-05
1.5690494e-08
1.0928708e-07
2.9085822e-05
1.6160369e-08
1.074311e-07
2.9000035e-05
1.6613551e-08
1.0562664e-07
2.8915855e-05
1.7050371e-08
1.0387152e-07
2.8833233e-05
1.7471076e-08
1.0216362e-07
2.8752123e-05
1.787594e-08
1.005008e-07
2.8672479e-05
1.8265073e-08
9.8881081e-08
2.8594259e-05
1.863853e-08
9.7302473e-08
2.8517424e-05
1.899621e-08
9.5762938e-08
2.8441934e-05
1.9337808e-08
9.4260348e-08
2.8367753e-05
1.9662796e-08
9.2792332e-08
2.8294848e-05
1.9970467e-08
9.1356287e-08
2.8223187e-05
2.026001e-08
8.9948887e-08
2.8152746e-05
2.0530706e-08
8.8565935e-08
2.8083503e-05
2.078264e-08
8.7201822e-08
2.8015447e-05
2.1017556e-08
8.5848701e-08
2.7948582e-05
2.1240736e-08
8.4495823e-08
2.7882937e-05
2.1462718e-08
8.312949e-08
2.7818574e-05
2.1699967e-08
8.1736518e-08
2.7755588e-05
2.196927e-08
8.0324353e-08
2.7694014e-05
2.2266166e-08
7.9016061e-08
2.7633299e-05
2.2506269e-08
7.848063e-08
2.7571004e-05
2.239344e-08
8.0599476e-08
2.099308e-08
1.0779944e-07
0.00010489986
2.7443381e-07
6.5049155e-06
9.8802772e-05
5.0716635e-07
6.6362236e-06
9.329591e-05
6.5854978e-07
6.1922972e-06
8.8116302e-05
7.2902547e-07
5.9257148e-06
8.3248198e-05
7.4378814e-07