/*--------------------------------*- C++ -*----------------------------------*\
  =========                 |
  \\      /  F ield         | OpenFOAM: The Open Source CFD Toolbox
   \\    /   O peration     | Website:  https://openfoam.org
    \\  /    A nd           | Version:  7
     \\/     M anipulation  |
\*---------------------------------------------------------------------------*/
FoamFile
{
    version     2.0;
    format      ascii;
    class       volVectorField;
    location    "1050/water";
    object      U;
}
// * * * * * * * * * * * * * * * * * * * * * * * * * * * * * * * * * * * * * //

dimensions      [0 1 -1 0 0 0 0];

internalField   nonuniform List<vector> 
54000
(
(0.0090020934 0.00020305973 0.00020444027)
(0.0083186447 0.00023622738 0.00023904411)
(0.0073695241 0.00021363852 0.00021763527)
(0.0063566114 0.00018488016 0.00018965819)
(0.0054486673 0.00015530835 0.00016048633)
(0.0046741594 0.00012529952 0.00013052937)
(0.0040193038 9.7052611e-05 0.00010203017)
(0.0034740067 7.2578999e-05 7.7073288e-05)
(0.0030302461 5.2876127e-05 5.6738329e-05)
(0.0026757323 3.8068151e-05 4.1216512e-05)
(0.0023947254 2.7637703e-05 3.0037141e-05)
(0.0021713898 2.0689034e-05 2.233651e-05)
(0.0019919695 1.6236161e-05 1.7152703e-05)
(0.0018455015 1.3416236e-05 1.3643172e-05)
(0.0017237326 1.1582489e-05 1.1179122e-05)
(0.0016206928 1.0304891e-05 9.3455813e-06)
(0.0015321593 9.3257904e-06 7.8957162e-06)
(0.0014551546 8.5052962e-06 6.6953098e-06)
(0.0013875459 7.7746325e-06 5.6760575e-06)
(0.0013277612 7.1034283e-06 4.803486e-06)
(0.001274601 6.47985e-06 4.0581561e-06)
(0.0012271179 5.8999464e-06 3.4261576e-06)
(0.0011845424 5.3625307e-06 2.8950707e-06)
(0.001146235 4.8670218e-06 2.4526298e-06)
(0.0011116558 4.4125987e-06 2.0869766e-06)
(0.0010803434 3.9980127e-06 1.7867456e-06)
(0.0010519002 3.6214598e-06 1.5416118e-06)
(0.0010259819 3.2805941e-06 1.3421852e-06)
(0.001002289 2.973395e-06 1.1797306e-06)
(0.00098056199 2.6979497e-06 1.0463201e-06)
(0.00096057571 2.4519208e-06 9.3658923e-07)
(0.00094213242 2.2325667e-06 8.4693446e-07)
(0.00092505792 2.037387e-06 7.731659e-07)
(0.00090920047 1.8640898e-06 7.118417e-07)
(0.00089442818 1.7104628e-06 6.6046648e-07)
(0.0008806259 1.5743819e-06 6.170735e-07)
(0.00086769294 1.453861e-06 5.8005325e-07)
(0.00085554128 1.3470706e-06 5.4811464e-07)
(0.00084409387 1.2523495e-06 5.2023902e-07)
(0.00083328322 1.1681985e-06 4.9562692e-07)
(0.00082305015 1.0932622e-06 4.736532e-07)
(0.00081334267 1.0262295e-06 4.537829e-07)
(0.00080411486 9.6585977e-07 4.3554496e-07)
(0.00079532615 9.1131138e-07 4.1864991e-07)
(0.0007869407 8.6191698e-07 4.0290673e-07)
(0.00077892675 8.1708283e-07 3.8816751e-07)
(0.00077125603 7.7627628e-07 3.7432069e-07)
(0.0007639033 7.3902665e-07 3.6127626e-07)
(0.00075684597 7.049147e-07 3.4896435e-07)
(0.00075006373 6.7357489e-07 3.3733167e-07)
(0.00074353821 6.4469337e-07 3.2633753e-07)
(0.00073725293 6.1802531e-07 3.1581761e-07)
(0.00073119313 5.9334735e-07 3.0574327e-07)
(0.00072534528 5.7041924e-07 2.962105e-07)
(0.00071969687 5.4902476e-07 2.8716649e-07)
(0.00071423652 5.2901429e-07 2.7854301e-07)
(0.00070895385 5.1027327e-07 2.7031068e-07)
(0.00070383928 4.9268728e-07 2.6244854e-07)
(0.00069888396 4.7614494e-07 2.5493313e-07)
(0.00069407975 4.6055021e-07 2.4774326e-07)
(0.00068941911 4.4582078e-07 2.4086444e-07)
(0.00068489502 4.3188506e-07 2.342763e-07)
(0.00068050097 4.1868011e-07 2.2796462e-07)
(0.0006762309 4.0614686e-07 2.2191181e-07)
(0.00067207915 3.9423454e-07 2.1610515e-07)
(0.00066804042 3.8289737e-07 2.1053168e-07)
(0.00066410975 3.7209364e-07 2.0517763e-07)
(0.00066028251 3.6179369e-07 2.0003255e-07)
(0.00065655429 3.5196249e-07 1.9508264e-07)
(0.00065292099 3.4256964e-07 1.9031833e-07)
(0.00064937872 3.3358613e-07 1.857298e-07)
(0.00064592383 3.2498689e-07 1.8130549e-07)
(0.00064255288 3.1675056e-07 1.7704077e-07)
(0.0006392626 3.0885608e-07 1.7292454e-07)
(0.00063604992 3.0128286e-07 1.6895093e-07)
(0.00063291191 2.9401314e-07 1.6511054e-07)
(0.00062984582 2.8703165e-07 1.6139723e-07)
(0.00062684903 2.8032172e-07 1.5780304e-07)
(0.00062391907 2.7387109e-07 1.5432037e-07)
(0.00062105358 2.6766657e-07 1.5094233e-07)
(0.00061825035 2.6169431e-07 1.4766123e-07)
(0.00061550726 2.5594615e-07 1.4446932e-07)
(0.00061282235 2.5040718e-07 1.4136006e-07)
(0.00061019373 2.4506914e-07 1.3832421e-07)
(0.00060761964 2.3992014e-07 1.3535701e-07)
(0.00060509845 2.3494552e-07 1.3244843e-07)
(0.00060262862 2.3013497e-07 1.2959802e-07)
(0.00060020873 2.2547034e-07 1.2680389e-07)
(0.00059783744 2.2093254e-07 1.2407526e-07)
(0.00059551348 2.1649883e-07 1.2143406e-07)
(0.00059323554 2.1214894e-07 1.189294e-07)
(0.00059100214 2.0787146e-07 1.1666236e-07)
(0.00058881114 2.0369097e-07 1.1482958e-07)
(0.00058665898 1.9973121e-07 1.1382105e-07)
(0.0005845387 1.9638388e-07 1.1441111e-07)
(0.00058243501 1.9487255e-07 1.1837298e-07)
(0.00058031396 1.9977456e-07 1.3094399e-07)
(0.0005781161 2.2258484e-07 1.6397613e-07)
(0.00057566369 1.970693e-07 1.5080568e-07)
(0.00056906201 7.8896377e-07 7.5322615e-07)
(0.0095316863 0.0003313754 0.00022336697)
(0.0092716504 0.00041105943 0.00027052342)
(0.0087756651 0.00040317187 0.00026060063)
(0.0081527518 0.00038218754 0.00024252081)
(0.0075302151 0.00035309574 0.00022101125)
(0.0069425889 0.00031541062 0.00019648834)
(0.006391209 0.00027309198 0.00017102969)
(0.0058791845 0.00023030694 0.00014652546)
(0.0054120202 0.00019001855 0.00012410997)
(0.0049926512 0.00015423459 0.00010436627)
(0.004620592 0.00012408347 8.7479017e-05)
(0.0042931332 9.9809403e-05 7.3327496e-05)
(0.0040063965 8.0956424e-05 6.1601504e-05)
(0.0037559538 6.667221e-05 5.1918795e-05)
(0.0035372541 5.59858e-05 4.3907445e-05)
(0.003345947 4.7992056e-05 3.7246645e-05)
(0.0031780884 4.1941709e-05 3.1677529e-05)
(0.0030302311 3.7262445e-05 2.6997921e-05)
(0.0028994324 3.3540995e-05 2.3051138e-05)
(0.0027832152 3.0490244e-05 1.9714592e-05)
(0.0026795075 2.7915736e-05 1.6890544e-05)
(0.0025865783 2.5687842e-05 1.4499382e-05)
(0.002502978 2.3720893e-05 1.2475015e-05)
(0.0024274871 2.1958431e-05 1.0761725e-05)
(0.0023590736 2.0362992e-05 9.3122317e-06)
(0.0022968589 1.8909454e-05 8.0861293e-06)
(0.0022400906 1.7580767e-05 7.048962e-06)
(0.0021881216 1.6364899e-05 6.1714962e-06)
(0.0021403932 1.5251963e-05 5.428313e-06)
(0.0020964214 1.423385e-05 4.7973501e-06)
(0.0020557868 1.330304e-05 4.2604822e-06)
(0.0020181236 1.2451986e-05 3.8027032e-06)
(0.0019831119 1.1673909e-05 3.4109605e-06)
(0.0019504718 1.0962756e-05 3.07442e-06)
(0.0019199589 1.0312855e-05 2.7842598e-06)
(0.0018913593 9.7188332e-06 2.5331801e-06)
(0.0018644851 9.1756443e-06 2.3150736e-06)
(0.0018391716 8.6785718e-06 2.124832e-06)
(0.0018152735 8.2232414e-06 1.9581839e-06)
(0.0017926629 7.8056205e-06 1.8115682e-06)
(0.0017712268 7.421998e-06 1.6820109e-06)
(0.001750865 7.0689369e-06 1.5670703e-06)
(0.0017314886 6.7432701e-06 1.4647421e-06)
(0.0017130186 6.4422742e-06 1.3732756e-06)
(0.0016953848 6.1635573e-06 1.2911589e-06)
(0.0016785241 5.9049768e-06 1.2171194e-06)
(0.00166238 5.6646097e-06 1.1500849e-06)
(0.0016469019 5.4407259e-06 1.0891494e-06)
(0.001632044 5.2317769e-06 1.0335533e-06)
(0.0016177648 5.0363834e-06 9.826548e-07)
(0.0016040271 4.8533218e-06 9.3589476e-07)
(0.0015907965 4.6815622e-06 8.927377e-07)
(0.0015780424 4.5201564e-06 8.5278552e-07)
(0.0015657364 4.3681538e-06 8.1576983e-07)
(0.0015538526 4.224682e-06 7.8138443e-07)
(0.0015423672 4.08906e-06 7.4934454e-07)
(0.0015312583 3.9607287e-06 7.1941239e-07)
(0.0015205058 3.839152e-06 6.9138696e-07)
(0.0015100909 3.7238133e-06 6.6509406e-07)
(0.0014999963 3.614244e-06 6.4037891e-07)
(0.001490206 3.5100305e-06 6.171083e-07)
(0.0014807053 3.4107993e-06 5.9516004e-07)
(0.00147148 3.3162121e-06 5.7442785e-07)
(0.0014625175 3.2259597e-06 5.5481505e-07)
(0.0014538055 3.1397553e-06 5.3623511e-07)
(0.0014453328 3.0573363e-06 5.1861275e-07)
(0.0014370889 2.9784694e-06 5.018791e-07)
(0.0014290637 2.9029578e-06 4.8596833e-07)
(0.001421248 2.8306024e-06 4.708238e-07)
(0.001413633 2.761218e-06 4.5639293e-07)
(0.0014062103 2.6946328e-06 4.4262866e-07)
(0.0013989723 2.6306893e-06 4.2948802e-07)
(0.0013919116 2.5692438e-06 4.1693049e-07)
(0.0013850211 2.5101628e-06 4.0492057e-07)
(0.0013782945 2.4533181e-06 3.9342454e-07)
(0.0013717253 2.3985951e-06 3.8241162e-07)
(0.0013653078 2.3458856e-06 3.7185127e-07)
(0.0013590364 2.2950856e-06 3.6171757e-07)
(0.0013529058 2.2461045e-06 3.5198369e-07)
(0.001346911 2.1988517e-06 3.4262609e-07)
(0.0013410472 2.1532417e-06 3.3362027e-07)
(0.0013353099 2.1091966e-06 3.2494493e-07)
(0.001329695 2.066637e-06 3.1657972e-07)
(0.0013241983 2.025488e-06 3.0850093e-07)
(0.001318816 1.9856735e-06 3.0069073e-07)
(0.0013135446 1.9471124e-06 2.9313008e-07)
(0.0013083808 1.9097261e-06 2.8580627e-07)
(0.0013033213 1.8734242e-06 2.7870171e-07)
(0.0012983632 1.8381154e-06 2.718155e-07)
(0.0012935038 1.8037132e-06 2.6515342e-07)
(0.0012887402 1.7701693e-06 2.5874322e-07)
(0.0012840698 1.7375327e-06 2.5265017e-07)
(0.0012794889 1.706121e-06 2.470142e-07)
(0.0012749925 1.6769089e-06 2.42114e-07)
(0.001270572 1.6524666e-06 2.3851946e-07)
(0.0012662098 1.6393325e-06 2.3765948e-07)
(0.0012618709 1.6545759e-06 2.4458335e-07)
(0.0012574959 1.7463715e-06 2.7712521e-07)
(0.0012529717 2.0376713e-06 2.6526363e-07)
(0.0012433358 2.9514815e-06 1.3525324e-06)
(0.0095221617 0.00021179965 0.00022180582)
(0.009269783 0.00029872516 0.00026628967)
(0.0088657772 0.00031669844 0.00025526743)
(0.0083755729 0.000317438 0.00023864265)
(0.0078888426 0.00030841043 0.00021987851)
(0.0074276349 0.00028848207 0.00019850457)
(0.006988258 0.00026048391 0.00017617916)
(0.0065698164 0.00022855168 0.00015444521)
(0.0061756011 0.00019596771 0.00013413534)
(0.0058087146 0.00016504408 0.00011567593)
(0.0054706295 0.00013728621 9.9270839e-05)
(0.0051615551 0.00011345265 8.4947831e-05)
(0.0048808654 9.3684507e-05 7.2600738e-05)
(0.0046272998 7.7712988e-05 6.2044901e-05)
(0.0043991196 6.5057025e-05 5.3064543e-05)
(0.0041942886 5.5163888e-05 4.5443629e-05)
(0.0040106431 4.7493346e-05 3.8982753e-05)
(0.0038460219 4.1561375e-05 3.3506381e-05)
(0.0036983537 3.6958192e-05 2.8864074e-05)
(0.0035657105 3.3351175e-05 2.4928487e-05)
(0.0034463343 3.0479503e-05 2.1592136e-05)
(0.003338646 2.8144768e-05 1.87641e-05)
(0.003241243 2.6200155e-05 1.6367139e-05)
(0.0031528887 2.4539752e-05 1.4335368e-05)
(0.0030724986 2.3088867e-05 1.2612489e-05)
(0.0029991252 2.1796113e-05 1.1150133e-05)
(0.0029319421 2.0626904e-05 9.906481e-06)
(0.0028702292 1.9558164e-05 8.845815e-06)
(0.0028133589 1.8574039e-05 7.9385375e-06)
(0.0027607855 1.7663622e-05 7.1598227e-06)
(0.0027120345 1.6818833e-05 6.489036e-06)
(0.0026666927 1.6033066e-05 5.9090212e-06)
(0.0026243991 1.5301096e-05 5.4052731e-06)
(0.0025848382 1.4618819e-05 4.965652e-06)
(0.0025477347 1.3982713e-05 4.5801143e-06)
(0.0025128472 1.3389543e-05 4.2403264e-06)
(0.002479964 1.283628e-05 3.9393558e-06)
(0.0024488994 1.2320058e-05 3.6714253e-06)
(0.0024194896 1.1838143e-05 3.4317264e-06)
(0.00239159 1.138794e-05 3.216251e-06)
(0.0023650729 1.0966985e-05 3.021659e-06)
(0.0023398248 1.0572999e-05 2.8451727e-06)
(0.0023157449 1.0203875e-05 2.6844737e-06)
(0.0022927433 9.8575816e-06 2.5375941e-06)
(0.0022707398 9.5322161e-06 2.402863e-06)
(0.002249662 9.2260275e-06 2.2788669e-06)
(0.0022294453 8.93742e-06 2.1643998e-06)
(0.0022100312 8.6649299e-06 2.0584389e-06)
(0.0021913666 8.4072366e-06 1.9601016e-06)
(0.0021734038 8.1631538e-06 1.8686322e-06)
(0.0021560989 7.931621e-06 1.7833676e-06)
(0.0021394122 7.7117243e-06 1.7037081e-06)
(0.0021233074 7.502602e-06 1.629151e-06)
(0.0021077512 7.3033786e-06 1.5592837e-06)
(0.0020927129 7.1131869e-06 1.4937197e-06)
(0.0020781645 6.931415e-06 1.4321042e-06)
(0.0020640799 6.7576055e-06 1.3741144e-06)
(0.0020504351 6.5912614e-06 1.3194616e-06)
(0.0020372075 6.4318794e-06 1.2678944e-06)
(0.0020243766 6.2790069e-06 1.2191863e-06)
(0.0020119231 6.1322421e-06 1.1731318e-06)
(0.001999829 5.9912211e-06 1.1295436e-06)
(0.0019880776 5.8556107e-06 1.08825e-06)
(0.0019766531 5.7251053e-06 1.0490959e-06)
(0.001965541 5.5994093e-06 1.0119375e-06)
(0.0019547276 5.4782461e-06 9.7664555e-07)
(0.0019441999 5.361391e-06 9.43102e-07)
(0.0019339458 5.2486483e-06 9.1118978e-07)
(0.0019239539 5.1398188e-06 8.8080825e-07)
(0.0019142135 5.0347013e-06 8.5186021e-07)
(0.0019047144 4.9331179e-06 8.2425984e-07)
(0.001895447 4.8348992e-06 7.9792534e-07)
(0.0018864023 4.7398891e-06 7.7278045e-07)
(0.0018775718 4.647943e-06 7.4875626e-07)
(0.0018689473 4.5589227e-06 7.2578829e-07)
(0.0018605211 4.4726994e-06 7.0381369e-07)
(0.0018522861 4.3891534e-06 6.8277794e-07)
(0.0018442353 4.3081685e-06 6.6262596e-07)
(0.0018363621 4.2296384e-06 6.4330728e-07)
(0.0018286604 4.1534587e-06 6.2477743e-07)
(0.0018211241 4.0795285e-06 6.0698834e-07)
(0.0018137478 4.007753e-06 5.899004e-07)
(0.0018065261 3.9380357e-06 5.7347329e-07)
(0.001799454 3.8702789e-06 5.5766783e-07)
(0.0017925266 3.8043812e-06 5.4244724e-07)
(0.0017857395 3.7402354e-06 5.2777852e-07)
(0.0017790885 3.6777261e-06 5.1362939e-07)
(0.0017725695 3.6167247e-06 4.9996953e-07)
(0.0017661787 3.5571049e-06 4.8677632e-07)
(0.0017599128 3.4987585e-06 4.7402569e-07)
(0.0017537682 3.4416521e-06 4.6170929e-07)
(0.0017477416 3.3859632e-06 4.4983503e-07)
(0.0017418294 3.3323825e-06 4.3844315e-07)
(0.0017360272 3.2827913e-06 4.2764676e-07)
(0.0017303281 3.2417767e-06 4.1776856e-07)
(0.0017247202 3.2200403e-06 4.0999053e-07)
(0.001719183 3.2421553e-06 4.0985015e-07)
(0.001713691 3.3643431e-06 4.4114461e-07)
(0.0017081999 3.7072197e-06 4.7353408e-07)
(0.0016974804 4.4611204e-06 1.8634989e-06)
(0.0095012861 0.00013951169 0.00022248511)
(0.0092133349 0.00022408324 0.00026709763)
(0.0088018509 0.00025700941 0.00025529581)
(0.0083306071 0.00026690691 0.0002382081)
(0.0078754299 0.00026502159 0.00021939837)
(0.0074527063 0.00025295651 0.00019823245)
(0.0070564396 0.00023295893 0.00017634609)
(0.0066827538 0.00020836345 0.0001552305)
(0.006331873 0.00018203354 0.00013558338)
(0.0060047052 0.00015603739 0.00011769036)
(0.0057015056 0.00013180401 0.00010166909)
(0.0054220192 0.00011020725 8.7524314e-05)
(0.0051656909 9.16319e-05 7.5171986e-05)
(0.0049316845 7.6091187e-05 6.4472618e-05)
(0.0047188814 6.3363143e-05 5.526115e-05)
(0.0045259349 5.3104941e-05 4.7366819e-05)
(0.0043513547 4.4932757e-05 4.0624899e-05)
(0.0041935865 3.8471359e-05 3.4883032e-05)
(0.0040510752 3.3381244e-05 3.0003995e-05)
(0.0039223115 2.9370509e-05 2.5866182e-05)
(0.0038058643 2.6197262e-05 2.2362869e-05)
(0.0037004012 2.366673e-05 1.9400963e-05)
(0.0036047 2.1625756e-05 1.689961e-05)
(0.0035176529 1.9956326e-05 1.4788823e-05)
(0.0034382652 1.8569048e-05 1.3008104e-05)
(0.0033656513 1.7397363e-05 1.1504745e-05)
(0.0032990266 1.6392004e-05 1.0233523e-05)
(0.0032376995 1.5516242e-05 9.1565337e-06)
(0.0031810636 1.4743888e-05 8.2421116e-06)
(0.0031285885 1.4056151e-05 7.4635751e-06)
(0.0030798115 1.3438894e-05 6.7985197e-06)
(0.0030343294 1.288115e-05 6.2282221e-06)
(0.0029917905 1.2374495e-05 5.7369835e-06)
(0.0029518882 1.1912419e-05 5.3116675e-06)
(0.0029143553 1.1489689e-05 4.9413545e-06)
(0.0028789586 1.1101928e-05 4.6170005e-06)
(0.0028454946 1.0745377e-05 4.3311223e-06)
(0.0028137847 1.0416773e-05 4.0775279e-06)
(0.0027836727 1.0113218e-05 3.8511079e-06)
(0.0027550209 9.8321223e-06 3.6476454e-06)
(0.0027277081 9.5711602e-06 3.4636638e-06)
(0.002701627 9.3282505e-06 3.2963007e-06)
(0.0026766823 9.101516e-06 3.1431909e-06)
(0.0026527895 8.8892438e-06 3.0023816e-06)
(0.0026298729 8.6898918e-06 2.8722557e-06)
(0.0026078648 8.5020888e-06 2.7514713e-06)
(0.002586704 8.3246168e-06 2.6389099e-06)
(0.0025663358 8.156397e-06 2.5336423e-06)
(0.0025467102 7.9964751e-06 2.4348851e-06)
(0.002527782 7.8440265e-06 2.3419786e-06)
(0.0025095101 7.6983365e-06 2.2543608e-06)
(0.0024918566 7.558811e-06 2.1715439e-06)
(0.0024747871 7.4248992e-06 2.0931128e-06)
(0.0024582699 7.2960211e-06 2.0187206e-06)
(0.0024422756 7.1714388e-06 1.9480693e-06)
(0.0024267775 7.0509275e-06 1.8808985e-06)
(0.0024117506 6.934377e-06 1.8169525e-06)
(0.0023971715 6.8214892e-06 1.7560017e-06)
(0.0023830185 6.7119562e-06 1.697852e-06)
(0.0023692714 6.6055382e-06 1.6423286e-06)
(0.0023559116 6.5020457e-06 1.5892722e-06)
(0.0023429214 6.4013093e-06 1.5385376e-06)
(0.0023302844 6.3031809e-06 1.489994e-06)
(0.002317985 6.2075257e-06 1.4435163e-06)
(0.0023060089 6.114205e-06 1.3989946e-06)
(0.0022943424 6.0230692e-06 1.3563256e-06)
(0.0022829727 5.9340602e-06 1.315416e-06)
(0.0022718877 5.847131e-06 1.276171e-06)
(0.002261076 5.762205e-06 1.2385025e-06)
(0.0022505267 5.6791972e-06 1.2023306e-06)
(0.0022402296 5.5980408e-06 1.167583e-06)
(0.0022301752 5.5186712e-06 1.1341893e-06)
(0.0022203542 5.4410299e-06 1.1020814e-06)
(0.002210758 5.3650616e-06 1.0711994e-06)
(0.0022013784 5.290717e-06 1.0414838e-06)
(0.0021922076 5.2179471e-06 1.0128818e-06)
(0.0021832381 5.1467083e-06 9.8533803e-07)
(0.0021744628 5.0769564e-06 9.5880289e-07)
(0.0021658752 5.00865e-06 9.3323022e-07)
(0.0021574688 4.9417456e-06 9.0857418e-07)
(0.0021492375 4.8761985e-06 8.8479017e-07)
(0.0021411756 4.8119668e-06 8.6183982e-07)
(0.0021332776 4.7489991e-06 8.3967957e-07)
(0.0021255383 4.6872392e-06 8.1827108e-07)
(0.0021179527 4.6266212e-06 7.97576e-07)
(0.0021105161 4.5670671e-06 7.7756056e-07)
(0.0021032242 4.5084805e-06 7.5818398e-07)
(0.0020960727 4.4507526e-06 7.3941105e-07)
(0.0020890577 4.3937718e-06 7.2120354e-07)
(0.0020821756 4.3374533e-06 7.0351994e-07)
(0.002075423 4.2818086e-06 6.8632122e-07)
(0.0020687967 4.2271316e-06 6.6956063e-07)
(0.0020622937 4.174355e-06 6.5320237e-07)
(0.002055911 4.1258152e-06 6.372614e-07)
(0.0020496453 4.0868295e-06 6.2198409e-07)
(0.0020434926 4.0687762e-06 6.0874651e-07)
(0.0020374483 4.0948768e-06 6.0452183e-07)
(0.0020315149 4.2094244e-06 6.3987882e-07)
(0.0020256647 4.4797493e-06 7.1688461e-07)
(0.0020144539 4.9057777e-06 2.2695262e-06)
(0.0094902877 9.6726607e-05 0.00022289229)
(0.00917661 0.00016632333 0.00026788105)
(0.0087449456 0.00019969046 0.00025550648)
(0.0082664657 0.00021101604 0.00023762681)
(0.00781215 0.0002109939 0.0002181603)
(0.0073950862 0.0002028236 0.00019646328)
(0.0070087986 0.00018827265 0.00017418493)
(0.006648835 0.00016968865 0.0001528463)
(0.0063142174 0.00014929332 0.00013312182)
(0.0060045996 0.00012875288 0.0001152379)
(0.0057192201 0.00010923292 9.9256791e-05)
(0.0054570682 9.1490072e-05 8.5148911e-05)
(0.0052170782 7.5923401e-05 7.2816212e-05)
(0.0049981259 6.2643332e-05 6.2119133e-05)
(0.0047989841 5.1561152e-05 5.2900047e-05)
(0.0046183234 4.2472278e-05 4.4997975e-05)
(0.0044547458 3.5118726e-05 3.8256897e-05)
(0.0043068267 2.9230544e-05 3.2530442e-05)
(0.0041731526 2.4550834e-05 2.7684339e-05)
(0.0040523509 2.084911e-05 2.3597361e-05)
(0.0039431142 1.7926911e-05 2.0161345e-05)
(0.0038442168 1.5618598e-05 1.7280682e-05)
(0.0037545253 1.3789363e-05 1.4871532e-05)
(0.0036730042 1.2331758e-05 1.2860862e-05)
(0.0035987172 1.1161539e-05 1.118521e-05)
(0.0035308246 1.0213367e-05 9.7889743e-06)
(0.0034685786 9.4380823e-06 8.625072e-06)
(0.0034113173 8.7971276e-06 7.6543144e-06)
(0.0033584589 8.2627209e-06 6.8439406e-06)
(0.0033094933 7.8140818e-06 6.1664547e-06)
(0.0032639753 7.4348241e-06 5.5988454e-06)
(0.0032215172 7.1121298e-06 5.1219271e-06)
(0.0031817817 6.8360954e-06 4.7197276e-06)
(0.0031444758 6.5990201e-06 4.3789736e-06)
(0.0031093448 6.3947789e-06 4.0886821e-06)
(0.0030761678 6.2184034e-06 3.8397974e-06)
(0.0030447526 6.0657948e-06 3.6248789e-06)
(0.003014932 5.9335265e-06 3.4378181e-06)
(0.0029865602 5.8186971e-06 3.2736187e-06)
(0.0029595097 5.7188201e-06 3.1282047e-06)
(0.002933669 5.6317496e-06 2.9982611e-06)
(0.00290894 5.5556273e-06 2.881098e-06)
(0.0028852364 5.4888239e-06 2.7745337e-06)
(0.0028624815 5.4299143e-06 2.6768095e-06)
(0.0028406075 5.3776426e-06 2.5865043e-06)
(0.0028195538 5.3309235e-06 2.5024726e-06)
(0.0027992664 5.2888072e-06 2.423789e-06)
(0.0027796963 5.2504808e-06 2.3497104e-06)
(0.0027607998 5.2152408e-06 2.2796374e-06)
(0.002742537 5.1824975e-06 2.2130835e-06)
(0.0027248716 5.1517661e-06 2.1496539e-06)
(0.0027077708 5.1226697e-06 2.0890225e-06)
(0.002691204 5.0948968e-06 2.0309201e-06)
(0.0026751435 5.0680861e-06 1.9751373e-06)
(0.0026595636 5.0410646e-06 1.9215398e-06)
(0.0026444411 5.0142594e-06 1.8699664e-06)
(0.002629754 4.9880178e-06 1.8202531e-06)
(0.0026154815 4.9620716e-06 1.7722794e-06)
(0.0026016045 4.9361404e-06 1.7259601e-06)
(0.0025881054 4.9100847e-06 1.6812146e-06)
(0.0025749674 4.8838327e-06 1.6379651e-06)
(0.002562175 4.85734e-06 1.5961456e-06)
(0.0025497136 4.8305809e-06 1.5556929e-06)
(0.0025375693 4.8035401e-06 1.516548e-06)
(0.0025257292 4.7761776e-06 1.4786616e-06)
(0.002514181 4.7483853e-06 1.4419864e-06)
(0.0025029134 4.7202774e-06 1.4064837e-06)
(0.0024919153 4.691917e-06 1.3721029e-06)
(0.0024811765 4.6632904e-06 1.338797e-06)
(0.002470687 4.6344009e-06 1.3065293e-06)
(0.0024604377 4.6052662e-06 1.2752603e-06)
(0.0024504197 4.5759076e-06 1.244955e-06)
(0.0024406247 4.5463458e-06 1.2155765e-06)
(0.0024310448 4.5166002e-06 1.1870939e-06)
(0.0024216723 4.4866941e-06 1.159472e-06)
(0.0024125001 4.4566493e-06 1.1326842e-06)
(0.0024035213 4.4264875e-06 1.1066978e-06)
(0.0023947295 4.3962272e-06 1.0814828e-06)
(0.0023861184 4.3658895e-06 1.0570125e-06)
(0.0023776821 4.3354879e-06 1.0332607e-06)
(0.0023694149 4.3050336e-06 1.0101963e-06)
(0.0023613115 4.2745362e-06 9.8779591e-07)
(0.0023533667 4.2439933e-06 9.6603069e-07)
(0.0023455757 4.2133958e-06 9.4487434e-07)
(0.0023379338 4.182721e-06 9.2429934e-07)
(0.0023304365 4.1519263e-06 9.0427565e-07)
(0.0023230798 4.1209523e-06 8.8477248e-07)
(0.0023158598 4.0897228e-06 8.657525e-07)
(0.0023087726 4.0581544e-06 8.4717305e-07)
(0.002301815 4.0261901e-06 8.2898057e-07)
(0.0022949838 3.9938757e-06 8.1110656e-07)
(0.0022882766 3.9615297e-06 7.9346218e-07)
(0.002281691 3.9300785e-06 7.7594338e-07)
(0.0022752261 3.9016919e-06 7.5847741e-07)
(0.002268882 3.8809395e-06 7.4124615e-07)
(0.0022626608 3.876647e-06 7.2572658e-07)
(0.0022565686 3.9043043e-06 7.1957986e-07)
(0.0022506189 3.9866552e-06 7.5579987e-07)
(0.0022447715 4.1391008e-06 8.4931709e-07)
(0.002233564 4.2832258e-06 2.4122108e-06)
(0.0094843561 6.6886586e-05 0.00022303624)
(0.0091549219 0.00011904886 0.00026838771)
(0.0087072816 0.00014772496 0.00025588053)
(0.0082191888 0.00015892952 0.00023765677)
(0.0077602858 0.00016026049 0.00021787143)
(0.0073412804 0.00015505102 0.00019586613)
(0.0069552494 0.00014481701 0.00017327438)
(0.0065978366 0.00013121474 0.00015165024)
(0.0062677954 0.00011592881 0.00013169211)
(0.0059642872 0.00010028521 0.0001136244)
(0.0056860598 8.5214432e-05 9.7497523e-05)
(0.0054316726 7.1330407e-05 8.3272196e-05)
(0.0051997008 5.8984299e-05 7.0844884e-05)
(0.0049887459 4.8311754e-05 6.0073373e-05)
(0.0047973943 3.9291582e-05 5.079889e-05)
(0.0046242055 3.1804355e-05 4.2859902e-05)
(0.0044677269 2.5679088e-05 3.6099807e-05)
(0.0043265179 2.0725787e-05 3.0371292e-05)
(0.0041991724 1.6756344e-05 2.5538702e-05)
(0.004084339 1.3596838e-05 2.1479082e-05)
(0.0039807371 1.1093751e-05 1.8082322e-05)
(0.0038871692 9.1161623e-06 1.5250789e-05)
(0.0038025288 7.5553798e-06 1.2898647e-05)
(0.003725804 6.323135e-06 1.0950985e-05)
(0.0036560786 5.3488188e-06 9.3426779e-06)
(0.0035925304 4.5751805e-06 8.0166131e-06)
(0.0035344253 3.9620991e-06 6.9239487e-06)
(0.0034811131 3.4726269e-06 6.0250732e-06)
(0.0034320221 3.0815196e-06 5.286264e-06)
(0.0033866501 2.7702763e-06 4.6792094e-06)
(0.0033445586 2.5236741e-06 4.1805215e-06)
(0.0033053662 2.3295865e-06 3.7707536e-06)
(0.0032687419 2.1784959e-06 3.4337459e-06)
(0.0032343982 2.0629035e-06 3.1561117e-06)
(0.0032020863 1.9768086e-06 2.9267976e-06)
(0.0031715907 1.9153149e-06 2.7367044e-06)
(0.0031427248 1.8743791e-06 2.5783564e-06)
(0.0031153267 1.8506047e-06 2.4456291e-06)
(0.0030892563 1.8411251e-06 2.3335229e-06)
(0.0030643915 1.8434986e-06 2.2379662e-06)
(0.003040626 1.8556437e-06 2.1556637e-06)
(0.0030178671 1.8757805e-06 2.0839527e-06)
(0.0029960335 1.9023804e-06 2.0206943e-06)
(0.0029750538 1.9341343e-06 1.964181e-06)
(0.0029548648 1.969914e-06 1.9130519e-06)
(0.0029354109 2.0087619e-06 1.8662266e-06)
(0.0029166424 2.0498565e-06 1.8228526e-06)
(0.0028985148 2.0925074e-06 1.7822581e-06)
(0.0028809885 2.1361373e-06 1.7439145e-06)
(0.0028640277 2.1802712e-06 1.7074093e-06)
(0.0028475999 2.2245514e-06 1.672414e-06)
(0.0028316758 2.2687608e-06 1.6386547e-06)
(0.0028162284 2.3128944e-06 1.6058712e-06)
(0.0028012324 2.3570781e-06 1.5738226e-06)
(0.0027866658 2.3978702e-06 1.5431892e-06)
(0.0027725089 2.4362353e-06 1.513687e-06)
(0.0027587418 2.4734389e-06 1.4848887e-06)
(0.002745346 2.5095334e-06 1.4567019e-06)
(0.002732305 2.5443484e-06 1.4291165e-06)
(0.0027196032 2.5777718e-06 1.4021112e-06)
(0.0027072261 2.6097246e-06 1.3756637e-06)
(0.0026951602 2.6401654e-06 1.3497559e-06)
(0.0026833927 2.6690887e-06 1.3243747e-06)
(0.0026719116 2.696506e-06 1.2995092e-06)
(0.0026607054 2.7223751e-06 1.2751528e-06)
(0.0026497635 2.7463577e-06 1.2513138e-06)
(0.002639076 2.7689099e-06 1.2279768e-06)
(0.0026286333 2.7901478e-06 1.2051287e-06)
(0.0026184262 2.809994e-06 1.182762e-06)
(0.0026084461 2.8284317e-06 1.1608708e-06)
(0.0025986849 2.8454924e-06 1.1394491e-06)
(0.0025891348 2.8612169e-06 1.118491e-06)
(0.0025797885 2.8756473e-06 1.0979867e-06)
(0.002570639 2.888829e-06 1.0779287e-06)
(0.0025616795 2.9008051e-06 1.0583086e-06)
(0.0025529038 2.9116181e-06 1.0391192e-06)
(0.0025443058 2.9213125e-06 1.0203493e-06)
(0.0025358796 2.9299283e-06 1.0019902e-06)
(0.0025276198 2.9375066e-06 9.8403229e-07)
(0.002519521 2.9440805e-06 9.6646473e-07)
(0.0025115783 2.9496805e-06 9.4927942e-07)
(0.0025037869 2.9543378e-06 9.3246111e-07)
(0.0024961421 2.9580671e-06 9.1599888e-07)
(0.0024886396 2.9608803e-06 8.9987985e-07)
(0.0024812752 2.9627732e-06 8.8408435e-07)
(0.002474045 2.9637205e-06 8.6859354e-07)
(0.0024669452 2.9636865e-06 8.5338193e-07)
(0.0024599723 2.9626108e-06 8.3841384e-07)
(0.0024531231 2.9604298e-06 8.2364298e-07)
(0.0024463945 2.9570963e-06 8.0900399e-07)
(0.0024397839 2.9526514e-06 7.9439914e-07)
(0.0024332895 2.9473515e-06 7.7969376e-07)
(0.0024269099 2.9419144e-06 7.6470978e-07)
(0.0024206457 2.9379223e-06 7.4925961e-07)
(0.0024144993 2.938417e-06 7.3336436e-07)
(0.0024084767 2.9484957e-06 7.1826489e-07)
(0.0024025877 2.9751254e-06 7.1113285e-07)
(0.002396846 3.0234619e-06 7.4331224e-07)
(0.0023911946 3.08083e-06 8.3046598e-07)
(0.0023803644 3.0574254e-06 2.299943e-06)
(0.0094810492 4.4090137e-05 0.00022308885)
(0.0091422796 7.9975483e-05 0.00026874495)
(0.0086839084 0.00010160921 0.00025628771)
(0.0081880903 0.00011101591 0.00023793456)
(0.0077246858 0.00011275118 0.00021798622)
(0.0073029895 0.00010953687 0.00019578738)
(0.0069155191 0.00010266029 0.00017296032)
(0.0065579578 9.3267236e-05 0.0001510852)
(0.006229001 8.2539592e-05 0.00013089045)
(0.005927585 7.1446832e-05 0.00011261412)
(0.0056522063 6.067336e-05 9.630924e-05)
(0.0054012005 5.0670807e-05 8.1936268e-05)
(0.0051729477 4.1706609e-05 6.9390832e-05)
(0.004965887 3.3898116e-05 5.8529098e-05)
(0.0047784814 2.7249955e-05 4.9189879e-05)
(0.0046092054 2.1693073e-05 4.1208773e-05)
(0.0044565535 1.7117439e-05 3.4426143e-05)
(0.0043190553 1.3395521e-05 2.8691659e-05)
(0.0041952917 1.0397812e-05 2.3866804e-05)
(0.0040839086 8.002332e-06 1.9826011e-05)
(0.0039836292 6.0997698e-06 1.6456859e-05)
(0.0038932634 4.595662e-06 1.3659716e-05)
(0.0038117126 3.4106729e-06 1.1347013e-05)
(0.0037379734 2.4799292e-06 9.4422921e-06)
(0.0036711359 1.7515113e-06 7.8790894e-06)
(0.0036103859 1.174904e-06 6.6010329e-06)
(0.0035549935 7.2234153e-07 5.5561202e-06)
(0.0035043108 3.7342567e-07 4.7060692e-06)
(0.0034577717 1.0569704e-07 4.0163442e-06)
(0.0034148763 -9.9090067e-08 3.4574132e-06)
(0.0033751872 -2.5333571e-07 3.0054955e-06)
(0.0033383243 -3.6640036e-07 2.6409748e-06)
(0.0033039576 -4.4578065e-07 2.3475737e-06)
(0.0032718009 -4.9748558e-07 2.1118268e-06)
(0.0032416065 -5.2634729e-07 1.9226416e-06)
(0.0032131599 -5.3631105e-07 1.7709148e-06)
(0.0031862758 -5.3064108e-07 1.6492031e-06)
(0.0031607936 -5.1206332e-07 1.5514408e-06)
(0.0031365743 -4.828716e-07 1.4727106e-06)
(0.0031134976 -4.4500704e-07 1.4090331e-06)
(0.0030914586 -4.0011287e-07 1.357205e-06)
(0.0030703663 -3.4957965e-07 1.3146565e-06)
(0.0030501409 -2.9459593e-07 1.2793304e-06)
(0.0030307128 -2.3617069e-07 1.2495911e-06)
(0.0030120207 -1.751663e-07 1.2241404e-06)
(0.0029940105 -1.1232248e-07 1.2019519e-06)
(0.0029766343 -4.8268409e-08 1.1822236e-06)
(0.0029598495 1.6448495e-08 1.1643213e-06)
(0.0029436181 8.1355241e-08 1.1477514e-06)
(0.002927906 1.4602399e-07 1.1321237e-06)
(0.0029126825 2.1005833e-07 1.1171178e-06)
(0.0028979201 2.7304906e-07 1.1024396e-06)
(0.0028835935 3.3454096e-07 1.0876601e-06)
(0.0028696773 3.9432308e-07 1.0722031e-06)
(0.0028561514 4.5704984e-07 1.0590089e-06)
(0.0028429997 5.2060158e-07 1.0472575e-06)
(0.0028302035 5.8225203e-07 1.0356082e-06)
(0.0028177449 6.4163762e-07 1.0238015e-06)
(0.0028056084 6.9901836e-07 1.0118751e-06)
(0.0027937799 7.5455951e-07 9.9986967e-07)
(0.0027822461 8.083504e-07 9.8781107e-07)
(0.0027709946 8.6046979e-07 9.7571878e-07)
(0.0027600137 9.1102721e-07 9.6360251e-07)
(0.0027492926 9.6019749e-07 9.5144623e-07)
(0.0027388207 1.008008e-06 9.3926714e-07)
(0.0027285887 1.0528518e-06 9.2746487e-07)
(0.0027185878 1.0958668e-06 9.1582792e-07)
(0.0027088089 1.1375013e-06 9.0425317e-07)
(0.0026992438 1.1777692e-06 8.9275862e-07)
(0.0026898847 1.2166579e-06 8.8136517e-07)
(0.0026807244 1.2541705e-06 8.7007983e-07)
(0.0026717559 1.2903139e-06 8.5890693e-07)
(0.0026629726 1.3251061e-06 8.4785266e-07)
(0.0026543682 1.3585737e-06 8.3692349e-07)
(0.0026459367 1.39074e-06 8.2612129e-07)
(0.0026376723 1.4216344e-06 8.1545292e-07)
(0.0026295698 1.451289e-06 8.0491947e-07)
(0.0026216238 1.4797303e-06 7.9452328e-07)
(0.0026138294 1.50699e-06 7.8426294e-07)
(0.002606182 1.5330932e-06 7.7413962e-07)
(0.0025986769 1.558062e-06 7.6415216e-07)
(0.0025913099 1.5819207e-06 7.542949e-07)
(0.0025840769 1.6046801e-06 7.44564e-07)
(0.0025769739 1.6263483e-06 7.34952e-07)
(0.0025699972 1.6469208e-06 7.2544747e-07)