# Wall heat-flux
# Time        	patch         	min           	max           	integral      
0.5           	maxY	0.000000e+00	0.000000e+00	0.000000e+00
0.5           	minX	0.000000e+00	0.000000e+00	0.000000e+00
0.5           	maxX	0.000000e+00	0.000000e+00	0.000000e+00
0.5           	minY	0.000000e+00	0.000000e+00	0.000000e+00
0.5           	minZ	0.000000e+00	0.000000e+00	0.000000e+00
0.5           	maxZ	0.000000e+00	0.000000e+00	0.000000e+00
0.5           	air_to_sphere	1.535284e+03	4.282532e+03	9.322805e+00
1             	maxY	0.000000e+00	0.000000e+00	0.000000e+00
1             	minX	0.000000e+00	0.000000e+00	0.000000e+00
1             	maxX	0.000000e+00	0.000000e+00	0.000000e+00
1             	minY	0.000000e+00	0.000000e+00	0.000000e+00
1             	minZ	0.000000e+00	0.000000e+00	0.000000e+00
1             	maxZ	0.000000e+00	0.000000e+00	0.000000e+00
1             	air_to_sphere	9.315049e+02	5.025972e+03	1.020774e+01
1.5           	maxY	0.000000e+00	0.000000e+00	0.000000e+00
1.5           	minX	0.000000e+00	0.000000e+00	0.000000e+00
1.5           	maxX	0.000000e+00	0.000000e+00	0.000000e+00
1.5           	minY	0.000000e+00	0.000000e+00	0.000000e+00
1.5           	minZ	0.000000e+00	0.000000e+00	0.000000e+00
1.5           	maxZ	0.000000e+00	0.000000e+00	0.000000e+00
1.5           	air_to_sphere	1.183584e+03	4.905907e+03	1.022603e+01
2             	maxY	0.000000e+00	0.000000e+00	0.000000e+00
2             	minX	0.000000e+00	0.000000e+00	0.000000e+00
2             	maxX	0.000000e+00	0.000000e+00	0.000000e+00
2             	minY	0.000000e+00	0.000000e+00	0.000000e+00
2             	minZ	0.000000e+00	0.000000e+00	0.000000e+00
2             	maxZ	0.000000e+00	0.000000e+00	0.000000e+00
2             	air_to_sphere	1.087576e+03	4.929974e+03	1.020424e+01
2.5           	maxY	0.000000e+00	0.000000e+00	0.000000e+00
2.5           	minX	0.000000e+00	0.000000e+00	0.000000e+00
2.5           	maxX	0.000000e+00	0.000000e+00	0.000000e+00
2.5           	minY	0.000000e+00	0.000000e+00	0.000000e+00
2.5           	minZ	0.000000e+00	0.000000e+00	0.000000e+00
2.5           	maxZ	0.000000e+00	0.000000e+00	0.000000e+00
2.5           	air_to_sphere	1.108839e+03	4.936083e+03	1.021983e+01
3             	maxY	0.000000e+00	0.000000e+00	0.000000e+00
3             	minX	0.000000e+00	0.000000e+00	0.000000e+00
3             	maxX	0.000000e+00	0.000000e+00	0.000000e+00
3             	minY	0.000000e+00	0.000000e+00	0.000000e+00
3             	minZ	0.000000e+00	0.000000e+00	0.000000e+00
3             	maxZ	0.000000e+00	0.000000e+00	0.000000e+00
3             	air_to_sphere	1.107316e+03	4.940060e+03	1.022230e+01
3.5           	maxY	0.000000e+00	0.000000e+00	0.000000e+00
3.5           	minX	0.000000e+00	0.000000e+00	0.000000e+00
3.5           	maxX	0.000000e+00	0.000000e+00	0.000000e+00
3.5           	minY	0.000000e+00	0.000000e+00	0.000000e+00
3.5           	minZ	0.000000e+00	0.000000e+00	0.000000e+00
3.5           	maxZ	0.000000e+00	0.000000e+00	0.000000e+00
3.5           	air_to_sphere	1.106611e+03	4.936081e+03	1.021516e+01
4             	maxY	0.000000e+00	0.000000e+00	0.000000e+00
4             	minX	0.000000e+00	0.000000e+00	0.000000e+00
4             	maxX	0.000000e+00	0.000000e+00	0.000000e+00
4             	minY	0.000000e+00	0.000000e+00	0.000000e+00
4             	minZ	0.000000e+00	0.000000e+00	0.000000e+00
4             	maxZ	0.000000e+00	0.000000e+00	0.000000e+00
4             	air_to_sphere	1.105694e+03	4.932089e+03	1.020795e+01
4.5           	maxY	0.000000e+00	0.000000e+00	0.000000e+00
4.5           	minX	0.000000e+00	0.000000e+00	0.000000e+00
4.5           	maxX	0.000000e+00	0.000000e+00	0.000000e+00
4.5           	minY	0.000000e+00	0.000000e+00	0.000000e+00
4.5           	minZ	0.000000e+00	0.000000e+00	0.000000e+00
4.5           	maxZ	0.000000e+00	0.000000e+00	0.000000e+00
4.5           	air_to_sphere	1.104782e+03	4.927912e+03	1.020027e+01
5             	maxY	0.000000e+00	0.000000e+00	0.000000e+00
5             	minX	0.000000e+00	0.000000e+00	0.000000e+00
5             	maxX	0.000000e+00	0.000000e+00	0.000000e+00
5             	minY	0.000000e+00	0.000000e+00	0.000000e+00
5             	minZ	0.000000e+00	0.000000e+00	0.000000e+00
5             	maxZ	0.000000e+00	0.000000e+00	0.000000e+00
5             	air_to_sphere	1.103879e+03	4.923081e+03	1.019173e+01
5.5           	maxY	0.000000e+00	0.000000e+00	0.000000e+00
5.5           	minX	0.000000e+00	0.000000e+00	0.000000e+00
5.5           	maxX	0.000000e+00	0.000000e+00	0.000000e+00
5.5           	minY	0.000000e+00	0.000000e+00	0.000000e+00
5.5           	minZ	0.000000e+00	0.000000e+00	0.000000e+00
5.5           	maxZ	0.000000e+00	0.000000e+00	0.000000e+00
5.5           	air_to_sphere	1.102893e+03	4.917243e+03	1.018182e+01
6             	maxY	0.000000e+00	0.000000e+00	0.000000e+00
6             	minX	0.000000e+00	0.000000e+00	0.000000e+00
6             	maxX	0.000000e+00	0.000000e+00	0.000000e+00
6             	minY	0.000000e+00	0.000000e+00	0.000000e+00
6             	minZ	0.000000e+00	0.000000e+00	0.000000e+00
6             	maxZ	0.000000e+00	0.000000e+00	0.000000e+00
6             	air_to_sphere	1.101860e+03	4.910449e+03	1.017059e+01
6.5           	maxY	0.000000e+00	0.000000e+00	0.000000e+00
6.5           	minX	0.000000e+00	0.000000e+00	0.000000e+00
6.5           	maxX	0.000000e+00	0.000000e+00	0.000000e+00
6.5           	minY	0.000000e+00	0.000000e+00	0.000000e+00
6.5           	minZ	0.000000e+00	0.000000e+00	0.000000e+00
6.5           	maxZ	0.000000e+00	0.000000e+00	0.000000e+00
6.5           	air_to_sphere	1.100790e+03	4.902708e+03	1.015804e+01
7             	maxY	0.000000e+00	0.000000e+00	0.000000e+00
7             	minX	0.000000e+00	0.000000e+00	0.000000e+00
7             	maxX	0.000000e+00	0.000000e+00	0.000000e+00
7             	minY	0.000000e+00	0.000000e+00	0.000000e+00
7             	minZ	0.000000e+00	0.000000e+00	0.000000e+00
7             	maxZ	0.000000e+00	0.000000e+00	0.000000e+00
7             	air_to_sphere	1.099685e+03	4.894285e+03	1.014464e+01
7.5           	maxY	0.000000e+00	0.000000e+00	0.000000e+00
7.5           	minX	0.000000e+00	0.000000e+00	0.000000e+00
7.5           	maxX	0.000000e+00	0.000000e+00	0.000000e+00
7.5           	minY	0.000000e+00	0.000000e+00	0.000000e+00
7.5           	minZ	0.000000e+00	0.000000e+00	0.000000e+00
7.5           	maxZ	0.000000e+00	0.000000e+00	0.000000e+00
7.5           	air_to_sphere	1.098617e+03	4.886054e+03	1.013164e+01
8             	maxY	0.000000e+00	0.000000e+00	0.000000e+00
8             	minX	0.000000e+00	0.000000e+00	0.000000e+00
8             	maxX	0.000000e+00	0.000000e+00	0.000000e+00
8             	minY	0.000000e+00	0.000000e+00	0.000000e+00
8             	minZ	0.000000e+00	0.000000e+00	0.000000e+00
8             	maxZ	0.000000e+00	0.000000e+00	0.000000e+00
8             	air_to_sphere	1.097706e+03	4.879232e+03	1.012075e+01
8.5           	maxY	0.000000e+00	0.000000e+00	0.000000e+00
8.5           	minX	0.000000e+00	0.000000e+00	0.000000e+00
8.5           	maxX	0.000000e+00	0.000000e+00	0.000000e+00
8.5           	minY	0.000000e+00	0.000000e+00	0.000000e+00
8.5           	minZ	0.000000e+00	0.000000e+00	0.000000e+00
8.5           	maxZ	0.000000e+00	0.000000e+00	0.000000e+00
8.5           	air_to_sphere	1.097116e+03	4.874752e+03	1.011313e+01
9             	maxY	0.000000e+00	0.000000e+00	0.000000e+00
9             	minX	0.000000e+00	0.000000e+00	0.000000e+00
9             	maxX	0.000000e+00	0.000000e+00	0.000000e+00
9             	minY	0.000000e+00	0.000000e+00	0.000000e+00
9             	minZ	0.000000e+00	0.000000e+00	0.000000e+00
9             	maxZ	0.000000e+00	0.000000e+00	0.000000e+00
9             	air_to_sphere	1.096928e+03	4.872746e+03	1.010876e+01
9.5           	maxY	0.000000e+00	0.000000e+00	0.000000e+00
9.5           	minX	0.000000e+00	0.000000e+00	0.000000e+00
9.5           	maxX	0.000000e+00	0.000000e+00	0.000000e+00
9.5           	minY	0.000000e+00	0.000000e+00	0.000000e+00
9.5           	minZ	0.000000e+00	0.000000e+00	0.000000e+00
9.5           	maxZ	0.000000e+00	0.000000e+00	0.000000e+00
9.5           	air_to_sphere	1.097085e+03	4.872575e+03	1.010668e+01
10            	maxY	0.000000e+00	0.000000e+00	0.000000e+00
10            	minX	0.000000e+00	0.000000e+00	0.000000e+00
10            	maxX	0.000000e+00	0.000000e+00	0.000000e+00
10            	minY	0.000000e+00	0.000000e+00	0.000000e+00
10            	minZ	0.000000e+00	0.000000e+00	0.000000e+00
10            	maxZ	0.000000e+00	0.000000e+00	0.000000e+00
10            	air_to_sphere	1.097431e+03	4.873813e+03	1.010623e+01
