/*--------------------------------*- C++ -*----------------------------------*\
  =========                 |
  \\      /  F ield         | OpenFOAM: The Open Source CFD Toolbox
   \\    /   O peration     | Website:  https://openfoam.org
    \\  /    A nd           | Version:  7
     \\/     M anipulation  |
\*---------------------------------------------------------------------------*/
FoamFile
{
    version     2.0;
    format      ascii;
    class       volVectorField;
    location    "850/water";
    object      U;
}
// * * * * * * * * * * * * * * * * * * * * * * * * * * * * * * * * * * * * * //

dimensions      [0 1 -1 0 0 0 0];

internalField   nonuniform List<vector> 
54000
(
(0.0090020934 0.00020305973 0.00020444027)
(0.0083186447 0.00023622738 0.00023904411)
(0.0073695241 0.00021363852 0.00021763527)
(0.0063566114 0.00018488016 0.00018965819)
(0.0054486673 0.00015530836 0.00016048633)
(0.0046741594 0.00012529952 0.00013052937)
(0.0040193038 9.705261e-05 0.00010203017)
(0.0034740067 7.2578999e-05 7.7073287e-05)
(0.0030302461 5.2876127e-05 5.6738329e-05)
(0.0026757323 3.8068151e-05 4.1216512e-05)
(0.0023947254 2.7637703e-05 3.003714e-05)
(0.0021713898 2.0689033e-05 2.2336507e-05)
(0.0019919695 1.6236161e-05 1.7152703e-05)
(0.0018455015 1.3416237e-05 1.3643172e-05)
(0.0017237326 1.1582489e-05 1.1179122e-05)
(0.0016206928 1.0304892e-05 9.345581e-06)
(0.0015321593 9.3257904e-06 7.8957157e-06)
(0.0014551546 8.5052958e-06 6.6953107e-06)
(0.0013875459 7.7746335e-06 5.6760584e-06)
(0.0013277612 7.1034278e-06 4.8034865e-06)
(0.001274601 6.4798502e-06 4.0581565e-06)
(0.0012271179 5.8999462e-06 3.4261574e-06)
(0.0011845424 5.3625304e-06 2.8950712e-06)
(0.001146235 4.8670214e-06 2.4526311e-06)
(0.0011116558 4.4125996e-06 2.0869773e-06)
(0.0010803434 3.998013e-06 1.7867449e-06)
(0.0010519002 3.62146e-06 1.5416133e-06)
(0.0010259819 3.2805947e-06 1.3421854e-06)
(0.001002289 2.9733953e-06 1.1797312e-06)
(0.00098056199 2.6979495e-06 1.0463197e-06)
(0.00096057572 2.4519203e-06 9.3658958e-07)
(0.00094213242 2.2325671e-06 8.4693379e-07)
(0.00092505792 2.0373868e-06 7.7316538e-07)
(0.00090920047 1.8640893e-06 7.1184245e-07)
(0.00089442818 1.7104625e-06 6.6046829e-07)
(0.0008806259 1.5743819e-06 6.1707433e-07)
(0.00086769295 1.4538611e-06 5.8005305e-07)
(0.00085554128 1.3470704e-06 5.481142e-07)
(0.00084409387 1.2523493e-06 5.2023905e-07)
(0.00083328322 1.1681983e-06 4.9562793e-07)
(0.00082305015 1.0932618e-06 4.7365314e-07)
(0.00081334267 1.0262305e-06 4.5378283e-07)
(0.00080411486 9.6585909e-07 4.3554467e-07)
(0.00079532615 9.1131109e-07 4.1865058e-07)
(0.00078694071 8.6191669e-07 4.029064e-07)
(0.00077892675 8.1708259e-07 3.8816773e-07)
(0.00077125603 7.7627569e-07 3.7432076e-07)
(0.0007639033 7.3902622e-07 3.6127648e-07)
(0.00075684598 7.0491432e-07 3.4896357e-07)
(0.00075006373 6.735748e-07 3.3733109e-07)
(0.00074353822 6.4469335e-07 3.2633654e-07)
(0.00073725294 6.1802481e-07 3.1581904e-07)
(0.00073119314 5.9334628e-07 3.0574327e-07)
(0.00072534528 5.7041917e-07 2.9621126e-07)
(0.00071969687 5.4902496e-07 2.8716679e-07)
(0.00071423652 5.2901443e-07 2.7854379e-07)
(0.00070895386 5.1027254e-07 2.7031087e-07)
(0.00070383928 4.926878e-07 2.6244853e-07)
(0.00069888397 4.7614491e-07 2.5493306e-07)
(0.00069407976 4.6055009e-07 2.4774337e-07)
(0.00068941911 4.4582048e-07 2.4086411e-07)
(0.00068489502 4.318843e-07 2.3427655e-07)
(0.00068050098 4.1867891e-07 2.2796399e-07)
(0.00067623091 4.0614641e-07 2.2191187e-07)
(0.00067207915 3.9423524e-07 2.1610567e-07)
(0.00066804042 3.8289771e-07 2.1053144e-07)
(0.00066410976 3.7209484e-07 2.0517798e-07)
(0.00066028251 3.6179462e-07 2.0003277e-07)
(0.0006565543 3.5196222e-07 1.9508334e-07)
(0.00065292099 3.4256848e-07 1.9031832e-07)
(0.00064937872 3.3358605e-07 1.8572859e-07)
(0.00064592384 3.2498763e-07 1.813061e-07)
(0.00064255289 3.1675175e-07 1.7704025e-07)
(0.00063926261 3.0885528e-07 1.7292474e-07)
(0.00063604992 3.0128312e-07 1.6895075e-07)
(0.00063291192 2.9401262e-07 1.6511035e-07)
(0.00062984583 2.8703158e-07 1.6139813e-07)
(0.00062684904 2.8032257e-07 1.5780385e-07)
(0.00062391907 2.7387075e-07 1.543216e-07)
(0.00062105359 2.6766596e-07 1.5094211e-07)
(0.00061825035 2.6169564e-07 1.4766165e-07)
(0.00061550727 2.5594599e-07 1.4446958e-07)
(0.00061282235 2.504062e-07 1.4135914e-07)
(0.00061019373 2.4506909e-07 1.3832418e-07)
(0.00060761965 2.3992004e-07 1.3535624e-07)
(0.00060509846 2.3494557e-07 1.3244797e-07)
(0.00060262863 2.3013531e-07 1.2959846e-07)
(0.00060020873 2.2546945e-07 1.2680524e-07)
(0.00059783744 2.2093179e-07 1.2407482e-07)
(0.00059551348 2.1649814e-07 1.2143318e-07)
(0.00059323555 2.121491e-07 1.1892916e-07)
(0.00059100214 2.0787244e-07 1.1666179e-07)
(0.00058881114 2.0369057e-07 1.1482995e-07)
(0.00058665898 1.9973121e-07 1.1381887e-07)
(0.0005845387 1.9638402e-07 1.1440978e-07)
(0.00058243502 1.9487204e-07 1.1837299e-07)
(0.00058031396 1.9977514e-07 1.3094435e-07)
(0.0005781161 2.2258384e-07 1.6397569e-07)
(0.00057566369 1.970689e-07 1.5080619e-07)
(0.00056906201 7.8896429e-07 7.5322613e-07)
(0.0095316863 0.0003313754 0.00022336697)
(0.0092716504 0.00041105943 0.00027052342)
(0.0087756651 0.00040317187 0.00026060062)
(0.0081527518 0.00038218754 0.00024252081)
(0.0075302151 0.00035309574 0.00022101124)
(0.0069425889 0.00031541063 0.00019648834)
(0.006391209 0.00027309198 0.00017102969)
(0.0058791845 0.00023030694 0.00014652546)
(0.0054120202 0.00019001855 0.00012410998)
(0.0049926512 0.00015423459 0.00010436627)
(0.004620592 0.00012408347 8.7479017e-05)
(0.0042931332 9.9809402e-05 7.3327496e-05)
(0.0040063965 8.0956424e-05 6.1601504e-05)
(0.0037559538 6.667221e-05 5.1918794e-05)
(0.0035372541 5.59858e-05 4.3907445e-05)
(0.003345947 4.7992056e-05 3.7246645e-05)
(0.0031780884 4.1941709e-05 3.1677529e-05)
(0.0030302311 3.7262445e-05 2.699792e-05)
(0.0028994324 3.3540996e-05 2.3051138e-05)
(0.0027832152 3.0490243e-05 1.9714594e-05)
(0.0026795075 2.7915736e-05 1.6890543e-05)
(0.0025865783 2.5687841e-05 1.4499382e-05)
(0.002502978 2.3720893e-05 1.2475016e-05)
(0.0024274871 2.1958431e-05 1.0761726e-05)
(0.0023590736 2.0362994e-05 9.3122331e-06)
(0.0022968589 1.8909454e-05 8.08613e-06)
(0.0022400906 1.7580768e-05 7.048962e-06)
(0.0021881216 1.6364899e-05 6.1714979e-06)
(0.0021403932 1.5251963e-05 5.4283149e-06)
(0.0020964214 1.4233848e-05 4.7973505e-06)
(0.0020557868 1.3303039e-05 4.2604821e-06)
(0.0020181236 1.2451986e-05 3.8027045e-06)
(0.0019831119 1.1673908e-05 3.4109612e-06)
(0.0019504718 1.0962755e-05 3.0744204e-06)
(0.0019199589 1.0312854e-05 2.7842604e-06)
(0.0018913593 9.7188334e-06 2.53318e-06)
(0.0018644851 9.1756441e-06 2.3150728e-06)
(0.0018391716 8.678571e-06 2.1248308e-06)
(0.0018152735 8.2232415e-06 1.9581839e-06)
(0.001792663 7.8056206e-06 1.8115681e-06)
(0.0017712268 7.4219977e-06 1.6820121e-06)
(0.001750865 7.0689385e-06 1.5670704e-06)
(0.0017314886 6.7432698e-06 1.464743e-06)
(0.0017130186 6.4422723e-06 1.3732759e-06)
(0.0016953848 6.1635563e-06 1.2911582e-06)
(0.0016785241 5.9049769e-06 1.2171192e-06)
(0.00166238 5.6646085e-06 1.1500842e-06)
(0.0016469019 5.4407244e-06 1.0891489e-06)
(0.001632044 5.2317758e-06 1.0335528e-06)
(0.0016177649 5.0363836e-06 9.8265367e-07)
(0.0016040271 4.8533215e-06 9.3589371e-07)
(0.0015907965 4.6815629e-06 8.9273762e-07)
(0.0015780424 4.5201563e-06 8.5278676e-07)
(0.0015657364 4.3681535e-06 8.1577036e-07)
(0.0015538526 4.2246831e-06 7.8138556e-07)
(0.0015423672 4.0890607e-06 7.4934522e-07)
(0.0015312583 3.9607283e-06 7.1941217e-07)
(0.0015205058 3.8391537e-06 6.9138674e-07)
(0.0015100909 3.7238136e-06 6.6509435e-07)
(0.0014999963 3.6142431e-06 6.403798e-07)
(0.0014902061 3.5100293e-06 6.1710844e-07)
(0.0014807053 3.4107974e-06 5.9516094e-07)
(0.00147148 3.3162101e-06 5.7442809e-07)
(0.0014625175 3.2259583e-06 5.5481612e-07)
(0.0014538055 3.1397548e-06 5.3623629e-07)
(0.0014453328 3.0573353e-06 5.1861227e-07)
(0.0014370889 2.9784713e-06 5.0187857e-07)
(0.0014290637 2.9029591e-06 4.8596788e-07)
(0.001421248 2.8306025e-06 4.708243e-07)
(0.001413633 2.7612171e-06 4.56393e-07)
(0.0014062104 2.6946334e-06 4.4262809e-07)
(0.0013989723 2.6306902e-06 4.2948718e-07)
(0.0013919116 2.5692452e-06 4.1693057e-07)
(0.0013850212 2.5101609e-06 4.0492057e-07)
(0.0013782945 2.4533174e-06 3.9342462e-07)
(0.0013717253 2.398594e-06 3.824118e-07)
(0.0013653078 2.3458863e-06 3.7185205e-07)
(0.0013590364 2.2950881e-06 3.6171843e-07)
(0.0013529058 2.246105e-06 3.5198401e-07)
(0.001346911 2.1988509e-06 3.4262628e-07)
(0.0013410472 2.1532429e-06 3.3362155e-07)
(0.0013353099 2.1091969e-06 3.2494571e-07)
(0.001329695 2.066636e-06 3.1657948e-07)
(0.0013241983 2.025488e-06 3.0850029e-07)
(0.001318816 1.9856732e-06 3.006909e-07)
(0.0013135446 1.9471136e-06 2.9313031e-07)
(0.0013083808 1.9097267e-06 2.8580583e-07)
(0.0013033213 1.873423e-06 2.7870276e-07)
(0.0012983632 1.838114e-06 2.7181628e-07)
(0.0012935038 1.8037139e-06 2.6515331e-07)
(0.0012887402 1.7701693e-06 2.5874256e-07)
(0.0012840698 1.7375333e-06 2.5265002e-07)
(0.0012794889 1.7061219e-06 2.4701442e-07)
(0.0012749925 1.6769085e-06 2.4211285e-07)
(0.001270572 1.6524661e-06 2.3851854e-07)
(0.0012662098 1.6393317e-06 2.3766014e-07)
(0.0012618709 1.654577e-06 2.4458196e-07)
(0.001257496 1.7463707e-06 2.7712418e-07)
(0.0012529717 2.0376704e-06 2.6526451e-07)
(0.0012433358 2.9514824e-06 1.3525329e-06)
(0.0095221617 0.00021179965 0.00022180581)
(0.009269783 0.00029872516 0.00026628967)
(0.0088657772 0.00031669844 0.00025526743)
(0.0083755729 0.000317438 0.00023864265)
(0.0078888426 0.00030841043 0.00021987851)
(0.0074276349 0.00028848207 0.00019850458)
(0.006988258 0.00026048391 0.00017617916)
(0.0065698164 0.00022855168 0.00015444521)
(0.0061756011 0.00019596771 0.00013413534)
(0.0058087146 0.00016504408 0.00011567593)
(0.0054706295 0.00013728621 9.9270839e-05)
(0.0051615551 0.00011345265 8.4947831e-05)
(0.0048808654 9.3684507e-05 7.2600737e-05)
(0.0046272998 7.7712987e-05 6.2044901e-05)
(0.0043991196 6.5057025e-05 5.3064543e-05)
(0.0041942886 5.5163887e-05 4.544363e-05)
(0.0040106431 4.7493346e-05 3.8982754e-05)
(0.0038460219 4.1561376e-05 3.3506381e-05)
(0.0036983537 3.6958194e-05 2.8864074e-05)
(0.0035657105 3.3351176e-05 2.4928487e-05)
(0.0034463343 3.0479503e-05 2.1592134e-05)
(0.003338646 2.8144768e-05 1.8764098e-05)
(0.003241243 2.6200155e-05 1.6367138e-05)
(0.0031528887 2.4539752e-05 1.4335369e-05)
(0.0030724986 2.3088867e-05 1.261249e-05)
(0.0029991252 2.1796112e-05 1.1150134e-05)
(0.0029319421 2.0626905e-05 9.9064827e-06)
(0.0028702292 1.9558163e-05 8.8458159e-06)
(0.0028133589 1.8574037e-05 7.9385383e-06)
(0.0027607855 1.7663621e-05 7.1598237e-06)
(0.0027120345 1.6818832e-05 6.489036e-06)
(0.0026666927 1.6033066e-05 5.9090204e-06)
(0.0026243991 1.5301094e-05 5.4052731e-06)
(0.0025848383 1.4618819e-05 4.9656519e-06)
(0.0025477347 1.3982713e-05 4.5801136e-06)
(0.0025128472 1.3389543e-05 4.2403269e-06)
(0.002479964 1.283628e-05 3.939355e-06)
(0.0024488994 1.2320058e-05 3.6714253e-06)
(0.0024194896 1.1838144e-05 3.4317268e-06)
(0.00239159 1.1387939e-05 3.2162511e-06)
(0.0023650729 1.0966985e-05 3.0216609e-06)
(0.0023398248 1.0572999e-05 2.8451746e-06)
(0.0023157449 1.0203875e-05 2.6844744e-06)
(0.0022927433 9.8575803e-06 2.5375943e-06)
(0.0022707398 9.5322155e-06 2.4028628e-06)
(0.002249662 9.226028e-06 2.2788664e-06)
(0.0022294453 8.9374186e-06 2.1644001e-06)
(0.0022100312 8.6649279e-06 2.0584376e-06)
(0.0021913666 8.4072358e-06 1.9601004e-06)
(0.0021734038 8.1631537e-06 1.868631e-06)
(0.0021560989 7.9316199e-06 1.7833672e-06)
(0.0021394122 7.7117243e-06 1.7037071e-06)
(0.0021233074 7.502603e-06 1.6291508e-06)
(0.0021077512 7.3033791e-06 1.5592835e-06)
(0.0020927129 7.1131877e-06 1.493719e-06)
(0.0020781645 6.9314184e-06 1.4321045e-06)
(0.0020640799 6.7576064e-06 1.3741139e-06)
(0.0020504351 6.5912621e-06 1.3194614e-06)
(0.0020372075 6.43188e-06 1.267895e-06)
(0.0020243766 6.2790063e-06 1.2191874e-06)
(0.0020119231 6.1322412e-06 1.173132e-06)
(0.001999829 5.9912208e-06 1.129543e-06)
(0.0019880776 5.8556098e-06 1.0882499e-06)
(0.0019766531 5.7251036e-06 1.0490966e-06)
(0.0019655411 5.5994075e-06 1.011938e-06)
(0.0019547276 5.4782441e-06 9.7664577e-07)
(0.0019441999 5.36139e-06 9.4310031e-07)
(0.0019339458 5.2486484e-06 9.1118955e-07)
(0.0019239539 5.1398182e-06 8.8080752e-07)
(0.0019142135 5.0347013e-06 8.5185956e-07)
(0.0019047144 4.9331192e-06 8.2425961e-07)
(0.001895447 4.8348996e-06 7.9792469e-07)
(0.0018864023 4.7398893e-06 7.727808e-07)
(0.0018775718 4.6479418e-06 7.4875635e-07)
(0.0018689473 4.5589203e-06 7.2578787e-07)
(0.0018605211 4.4726988e-06 7.0381425e-07)
(0.0018522861 4.3891535e-06 6.8277819e-07)
(0.0018442353 4.3081697e-06 6.6262569e-07)
(0.0018363621 4.2296387e-06 6.4330689e-07)
(0.0018286604 4.1534582e-06 6.2477681e-07)
(0.0018211241 4.0795286e-06 6.0698866e-07)
(0.0018137478 4.0077532e-06 5.8990062e-07)
(0.0018065261 3.9380362e-06 5.7347308e-07)
(0.001799454 3.8702785e-06 5.576672e-07)
(0.0017925266 3.8043819e-06 5.4244749e-07)
(0.0017857396 3.7402368e-06 5.2777813e-07)
(0.0017790885 3.6777271e-06 5.136293e-07)
(0.0017725695 3.6167247e-06 4.9996943e-07)
(0.0017661787 3.557106e-06 4.867755e-07)
(0.0017599128 3.4987611e-06 4.7402419e-07)
(0.0017537682 3.4416532e-06 4.6170917e-07)
(0.0017477416 3.3859637e-06 4.4983579e-07)
(0.0017418294 3.3323831e-06 4.3844247e-07)
(0.0017360272 3.2827912e-06 4.2764611e-07)
(0.0017303281 3.2417762e-06 4.177683e-07)
(0.0017247202 3.2200404e-06 4.0999041e-07)
(0.001719183 3.2421551e-06 4.0984983e-07)
(0.001713691 3.3643435e-06 4.4114371e-07)
(0.0017081999 3.707219e-06 4.7353415e-07)
(0.0016974804 4.4611189e-06 1.8634995e-06)
(0.0095012861 0.00013951169 0.00022248511)
(0.0092133349 0.00022408324 0.00026709763)
(0.0088018509 0.00025700941 0.00025529581)
(0.0083306071 0.00026690691 0.0002382081)
(0.0078754299 0.00026502159 0.00021939837)
(0.0074527063 0.00025295651 0.00019823245)
(0.0070564396 0.00023295893 0.00017634609)
(0.0066827538 0.00020836345 0.0001552305)
(0.006331873 0.00018203353 0.00013558338)
(0.0060047052 0.00015603739 0.00011769036)
(0.0057015056 0.00013180401 0.00010166909)
(0.0054220192 0.00011020725 8.7524314e-05)
(0.0051656909 9.1631901e-05 7.5171986e-05)
(0.0049316845 7.6091188e-05 6.4472618e-05)
(0.0047188814 6.3363143e-05 5.526115e-05)
(0.0045259349 5.3104941e-05 4.7366821e-05)
(0.0043513547 4.4932757e-05 4.0624899e-05)
(0.0041935865 3.8471361e-05 3.4883031e-05)
(0.0040510752 3.3381246e-05 3.0003995e-05)
(0.0039223115 2.937051e-05 2.5866182e-05)
(0.0038058643 2.6197262e-05 2.2362868e-05)
(0.0037004012 2.3666731e-05 1.9400962e-05)
(0.0036047 2.1625757e-05 1.689961e-05)
(0.0035176529 1.9956326e-05 1.4788823e-05)
(0.0034382652 1.8569047e-05 1.3008105e-05)
(0.0033656513 1.7397361e-05 1.1504745e-05)
(0.0032990266 1.6392004e-05 1.0233523e-05)
(0.0032376995 1.5516241e-05 9.1565348e-06)
(0.0031810636 1.4743888e-05 8.2421118e-06)
(0.0031285885 1.4056152e-05 7.4635747e-06)
(0.0030798115 1.3438894e-05 6.7985204e-06)
(0.0030343294 1.288115e-05 6.2282225e-06)
(0.0029917905 1.2374494e-05 5.7369836e-06)
(0.0029518882 1.1912419e-05 5.311667e-06)
(0.0029143553 1.1489691e-05 4.9413533e-06)
(0.0028789586 1.1101928e-05 4.6170004e-06)
(0.0028454946 1.0745378e-05 4.3311219e-06)
(0.0028137847 1.0416774e-05 4.077528e-06)
(0.0027836727 1.0113218e-05 3.8511072e-06)
(0.0027550209 9.8321212e-06 3.6476447e-06)
(0.0027277081 9.5711596e-06 3.4636646e-06)
(0.002701627 9.3282501e-06 3.2963008e-06)
(0.0026766823 9.1015161e-06 3.1431916e-06)
(0.0026527895 8.8892443e-06 3.0023827e-06)
(0.0026298729 8.6898923e-06 2.872256e-06)
(0.0026078648 8.5020889e-06 2.7514715e-06)
(0.002586704 8.3246167e-06 2.6389097e-06)
(0.0025663358 8.1563954e-06 2.5336417e-06)
(0.0025467102 7.9964748e-06 2.4348839e-06)
(0.002527782 7.844027e-06 2.3419795e-06)
(0.0025095101 7.6983362e-06 2.2543621e-06)
(0.0024918566 7.5588099e-06 2.1715444e-06)
(0.0024747871 7.4248992e-06 2.0931112e-06)
(0.0024582699 7.2960214e-06 2.0187199e-06)
(0.0024422756 7.1714387e-06 1.9480685e-06)
(0.0024267775 7.0509302e-06 1.880898e-06)
(0.0024117506 6.9343777e-06 1.8169521e-06)
(0.0023971715 6.8214894e-06 1.7560012e-06)
(0.0023830185 6.7119554e-06 1.6978517e-06)
(0.0023692714 6.6055389e-06 1.6423281e-06)
(0.0023559116 6.502045e-06 1.5892725e-06)
(0.0023429214 6.4013096e-06 1.538538e-06)
(0.0023302844 6.303181e-06 1.4899937e-06)
(0.0023179851 6.2075251e-06 1.4435166e-06)
(0.0023060089 6.114203e-06 1.3989934e-06)
(0.0022943424 6.0230679e-06 1.3563247e-06)
(0.0022829727 5.9340578e-06 1.3154155e-06)
(0.0022718877 5.847129e-06 1.2761709e-06)
(0.002261076 5.7622028e-06 1.2385021e-06)
(0.0022505267 5.6791966e-06 1.2023307e-06)
(0.0022402296 5.5980418e-06 1.1675826e-06)
(0.0022301752 5.5186725e-06 1.1341884e-06)
(0.0022203542 5.441029e-06 1.1020806e-06)
(0.002210758 5.3650607e-06 1.0711991e-06)
(0.0022013784 5.2907148e-06 1.0414849e-06)
(0.0021922076 5.2179473e-06 1.0128827e-06)
(0.0021832381 5.1467083e-06 9.8533901e-07)
(0.0021744628 5.0769569e-06 9.5880415e-07)
(0.0021658752 5.0086495e-06 9.3323058e-07)
(0.0021574688 4.9417447e-06 9.085744e-07)
(0.0021492375 4.8761975e-06 8.8479222e-07)
(0.0021411756 4.8119656e-06 8.6183879e-07)
(0.0021332776 4.7489987e-06 8.3967896e-07)
(0.0021255383 4.6872385e-06 8.1827064e-07)
(0.0021179527 4.6266215e-06 7.9757624e-07)
(0.0021105161 4.5670663e-06 7.7756033e-07)
(0.0021032242 4.5084817e-06 7.5818381e-07)
(0.0020960727 4.4507535e-06 7.3941108e-07)
(0.0020890577 4.3937753e-06 7.2120332e-07)
(0.0020821756 4.3374554e-06 7.0352081e-07)
(0.002075423 4.281811e-06 6.8632169e-07)
(0.0020687967 4.2271335e-06 6.6956109e-07)
(0.0020622937 4.1743552e-06 6.5320333e-07)
(0.002055911 4.1258148e-06 6.3726163e-07)
(0.0020496453 4.0868293e-06 6.2198477e-07)
(0.0020434926 4.0687771e-06 6.0874713e-07)
(0.0020374483 4.0948767e-06 6.0452045e-07)
(0.0020315149 4.2094241e-06 6.3987767e-07)
(0.0020256647 4.4797473e-06 7.1688424e-07)
(0.0020144539 4.9057742e-06 2.2695252e-06)
(0.0094902877 9.6726608e-05 0.00022289229)
(0.00917661 0.00016632333 0.00026788105)
(0.0087449456 0.00019969046 0.00025550648)
(0.0082664657 0.00021101604 0.00023762681)
(0.00781215 0.0002109939 0.0002181603)
(0.0073950862 0.0002028236 0.00019646328)
(0.0070087986 0.00018827265 0.00017418493)
(0.006648835 0.00016968865 0.0001528463)
(0.0063142174 0.00014929331 0.00013312182)
(0.0060045996 0.00012875288 0.0001152379)
(0.0057192201 0.00010923292 9.9256791e-05)
(0.0054570682 9.1490072e-05 8.514891e-05)
(0.0052170782 7.5923402e-05 7.2816212e-05)
(0.0049981259 6.2643332e-05 6.2119133e-05)
(0.0047989841 5.1561154e-05 5.2900047e-05)
(0.0046183234 4.2472279e-05 4.4997976e-05)
(0.0044547458 3.5118726e-05 3.8256897e-05)
(0.0043068267 2.9230544e-05 3.2530442e-05)
(0.0041731526 2.4550835e-05 2.768434e-05)
(0.0040523509 2.0849111e-05 2.3597362e-05)
(0.0039431142 1.7926911e-05 2.0161345e-05)
(0.0038442168 1.5618599e-05 1.7280682e-05)
(0.0037545253 1.3789365e-05 1.4871531e-05)
(0.0036730042 1.2331758e-05 1.2860862e-05)
(0.0035987172 1.1161539e-05 1.1185211e-05)
(0.0035308246 1.0213367e-05 9.7889738e-06)
(0.0034685786 9.4380831e-06 8.6250713e-06)
(0.0034113173 8.7971293e-06 7.6543158e-06)
(0.0033584589 8.262721e-06 6.8439398e-06)
(0.0033094933 7.8140823e-06 6.1664551e-06)
(0.0032639753 7.4348235e-06 5.5988445e-06)
(0.0032215172 7.1121297e-06 5.1219276e-06)
(0.0031817817 6.8360969e-06 4.7197282e-06)
(0.0031444758 6.5990203e-06 4.3789738e-06)
(0.0031093448 6.3947804e-06 4.0886808e-06)
(0.0030761678 6.2184045e-06 3.839798e-06)
(0.0030447526 6.0657948e-06 3.6248787e-06)
(0.003014932 5.933526e-06 3.4378179e-06)
(0.0029865602 5.8186969e-06 3.2736185e-06)
(0.0029595097 5.71882e-06 3.1282041e-06)
(0.002933669 5.6317496e-06 2.9982618e-06)
(0.0029089401 5.555627e-06 2.8810975e-06)
(0.0028852364 5.4888252e-06 2.7745339e-06)
(0.0028624815 5.4299139e-06 2.6768094e-06)
(0.0028406075 5.3776433e-06 2.5865049e-06)
(0.0028195538 5.3309234e-06 2.5024734e-06)
(0.0027992664 5.2888083e-06 2.4237898e-06)
(0.0027796963 5.2504806e-06 2.3497107e-06)
(0.0027607998 5.215241e-06 2.2796375e-06)
(0.002742537 5.1824978e-06 2.2130838e-06)
(0.0027248717 5.1517659e-06 2.1496547e-06)
(0.0027077708 5.1226688e-06 2.0890229e-06)
(0.0026912041 5.0948962e-06 2.0309213e-06)
(0.0026751435 5.0680873e-06 1.9751366e-06)
(0.0026595636 5.0410652e-06 1.9215389e-06)
(0.0026444411 5.0142595e-06 1.8699668e-06)
(0.002629754 4.9880184e-06 1.8202517e-06)
(0.0026154815 4.9620722e-06 1.7722791e-06)
(0.0026016045 4.9361391e-06 1.7259607e-06)
(0.0025881054 4.9100852e-06 1.6812146e-06)
(0.0025749674 4.8838326e-06 1.6379658e-06)
(0.002562175 4.8573396e-06 1.5961457e-06)
(0.0025497136 4.8305816e-06 1.555693e-06)
(0.0025375693 4.80354e-06 1.5165479e-06)
(0.0025257292 4.7761752e-06 1.4786603e-06)
(0.002514181 4.7483838e-06 1.441986e-06)
(0.0025029134 4.7202756e-06 1.4064834e-06)
(0.0024919154 4.691914e-06 1.372102e-06)
(0.0024811765 4.663289e-06 1.3387975e-06)
(0.002470687 4.6344005e-06 1.306529e-06)
(0.0024604377 4.605267e-06 1.2752602e-06)
(0.0024504197 4.5759082e-06 1.2449539e-06)
(0.0024406247 4.5463442e-06 1.2155751e-06)
(0.0024310448 4.5166001e-06 1.1870936e-06)
(0.0024216723 4.4866942e-06 1.1594728e-06)
(0.0024125001 4.4566503e-06 1.132684e-06)
(0.0024035213 4.4264881e-06 1.1066972e-06)
(0.0023947295 4.3962286e-06 1.0814838e-06)
(0.0023861184 4.3658885e-06 1.0570126e-06)
(0.0023776821 4.3354864e-06 1.033259e-06)
(0.0023694149 4.3050333e-06 1.010197e-06)
(0.0023613115 4.2745347e-06 9.8779559e-07)
(0.0023533667 4.2439921e-06 9.6603118e-07)
(0.0023455757 4.2133961e-06 9.448744e-07)
(0.0023379338 4.1827201e-06 9.2429907e-07)
(0.0023304365 4.1519249e-06 9.0427595e-07)
(0.0023230798 4.1209532e-06 8.8477223e-07)
(0.0023158598 4.0897249e-06 8.6575244e-07)
(0.0023087726 4.058157e-06 8.4717303e-07)
(0.002301815 4.0261921e-06 8.2898044e-07)
(0.0022949838 3.9938769e-06 8.1110702e-07)
(0.0022882766 3.9615306e-06 7.9346415e-07)
(0.002281691 3.9300798e-06 7.759439e-07)
(0.0022752261 3.9016919e-06 7.5847812e-07)
(0.002268882 3.8809397e-06 7.4124636e-07)
(0.0022626608 3.8766473e-06 7.2572664e-07)
(0.0022565686 3.9043036e-06 7.1957975e-07)
(0.0022506189 3.9866542e-06 7.5579999e-07)
(0.0022447715 4.1390979e-06 8.4931697e-07)
(0.002233564 4.283224e-06 2.4122109e-06)
(0.0094843561 6.6886587e-05 0.00022303624)
(0.0091549219 0.00011904886 0.00026838771)
(0.0087072816 0.00014772496 0.00025588053)
(0.0082191888 0.00015892952 0.00023765677)
(0.0077602858 0.00016026049 0.00021787142)
(0.0073412804 0.00015505102 0.00019586613)
(0.0069552494 0.00014481701 0.00017327438)
(0.0065978366 0.00013121474 0.00015165024)
(0.0062677954 0.00011592881 0.00013169211)
(0.0059642872 0.00010028521 0.0001136244)
(0.0056860598 8.5214431e-05 9.7497522e-05)
(0.0054316726 7.1330408e-05 8.3272197e-05)
(0.0051997008 5.8984299e-05 7.0844884e-05)
(0.0049887459 4.8311754e-05 6.0073374e-05)
(0.0047973943 3.9291583e-05 5.079889e-05)
(0.0046242055 3.1804355e-05 4.2859902e-05)
(0.0044677269 2.5679087e-05 3.6099807e-05)
(0.0043265179 2.0725785e-05 3.0371292e-05)
(0.0041991724 1.6756344e-05 2.5538703e-05)
(0.004084339 1.3596837e-05 2.1479083e-05)
(0.0039807371 1.1093753e-05 1.8082324e-05)
(0.0038871692 9.1161639e-06 1.5250791e-05)
(0.0038025288 7.5553807e-06 1.2898648e-05)
(0.003725804 6.3231349e-06 1.0950986e-05)
(0.0036560786 5.3488199e-06 9.342678e-06)
(0.0035925304 4.5751823e-06 8.0166131e-06)
(0.0035344253 3.9621004e-06 6.9239485e-06)
(0.0034811131 3.4726283e-06 6.0250734e-06)
(0.0034320221 3.0815202e-06 5.2862633e-06)
(0.0033866501 2.7702771e-06 4.6792105e-06)
(0.0033445586 2.5236733e-06 4.1805219e-06)
(0.0033053662 2.3295869e-06 3.770753e-06)
(0.0032687419 2.1784973e-06 3.4337455e-06)
(0.0032343982 2.0629068e-06 3.1561116e-06)
(0.0032020863 1.9768094e-06 2.9267968e-06)
(0.0031715907 1.9153164e-06 2.7367035e-06)
(0.0031427248 1.8743785e-06 2.5783553e-06)
(0.0031153267 1.850604e-06 2.4456289e-06)
(0.0030892563 1.8411247e-06 2.3335218e-06)
(0.0030643915 1.8434993e-06 2.2379665e-06)
(0.003040626 1.8556448e-06 2.1556641e-06)
(0.0030178671 1.8757807e-06 2.083953e-06)
(0.0029960335 1.9023817e-06 2.0206945e-06)
(0.0029750538 1.9341336e-06 1.9641823e-06)
(0.0029548649 1.9699148e-06 1.9130522e-06)
(0.0029354109 2.0087613e-06 1.8662281e-06)
(0.0029166424 2.0498571e-06 1.822853e-06)
(0.0028985148 2.0925088e-06 1.7822564e-06)
(0.0028809886 2.1361382e-06 1.7439154e-06)
(0.0028640277 2.1802709e-06 1.7074109e-06)
(0.0028476 2.22455e-06 1.6724148e-06)
(0.0028316758 2.2687602e-06 1.6386553e-06)
(0.0028162284 2.3128936e-06 1.6058719e-06)
(0.0028012324 2.3570803e-06 1.5738223e-06)
(0.0027866658 2.3978714e-06 1.5431885e-06)
(0.0027725089 2.4362353e-06 1.5136866e-06)
(0.0027587418 2.4734407e-06 1.4848885e-06)
(0.002745346 2.5095337e-06 1.4567012e-06)
(0.002732305 2.544349e-06 1.4291165e-06)
(0.0027196032 2.5777719e-06 1.4021121e-06)
(0.0027072261 2.6097242e-06 1.375664e-06)
(0.0026951602 2.6401656e-06 1.3497561e-06)
(0.0026833928 2.669088e-06 1.3243746e-06)
(0.0026719116 2.6965038e-06 1.2995093e-06)
(0.0026607054 2.7223732e-06 1.2751521e-06)
(0.0026497635 2.7463554e-06 1.2513122e-06)
(0.002639076 2.7689084e-06 1.2279778e-06)
(0.0026286333 2.7901457e-06 1.2051287e-06)
(0.0026184262 2.8099926e-06 1.1827611e-06)
(0.0026084461 2.8284313e-06 1.1608704e-06)
(0.0025986849 2.8454934e-06 1.1394491e-06)
(0.0025891348 2.8612166e-06 1.118491e-06)
(0.0025797885 2.8756477e-06 1.097986e-06)
(0.002570639 2.8888294e-06 1.0779289e-06)
(0.0025616795 2.9008056e-06 1.0583095e-06)
(0.0025529038 2.9116195e-06 1.0391188e-06)
(0.0025443058 2.921314e-06 1.0203489e-06)
(0.0025358796 2.9299296e-06 1.0019893e-06)
(0.0025276198 2.937505e-06 9.840327e-07)
(0.002519521 2.9440787e-06 9.6646497e-07)
(0.0025115783 2.9496815e-06 9.4927914e-07)
(0.0025037869 2.9543359e-06 9.3246091e-07)
(0.0024961421 2.9580665e-06 9.1599969e-07)
(0.0024886396 2.9608799e-06 8.998799e-07)
(0.0024812752 2.9627731e-06 8.8408489e-07)
(0.002474045 2.9637207e-06 8.6859474e-07)
(0.0024669452 2.9636864e-06 8.533821e-07)
(0.0024599723 2.9626123e-06 8.384146e-07)
(0.0024531231 2.9604306e-06 8.2364403e-07)
(0.0024463945 2.9570972e-06 8.0900272e-07)
(0.0024397839 2.9526514e-06 7.943989e-07)
(0.0024332895 2.9473514e-06 7.7969454e-07)
(0.0024269099 2.9419139e-06 7.6470863e-07)
(0.0024206457 2.9379232e-06 7.4925988e-07)
(0.0024144993 2.9384196e-06 7.3336466e-07)
(0.0024084767 2.9484965e-06 7.1826504e-07)
(0.0024025877 2.9751247e-06 7.1113284e-07)
(0.0023968461 3.023461e-06 7.4331293e-07)
(0.0023911946 3.0808291e-06 8.304669e-07)
(0.0023803644 3.0574244e-06 2.2999435e-06)
(0.0094810492 4.4090136e-05 0.00022308885)
(0.0091422796 7.9975483e-05 0.00026874495)
(0.0086839084 0.00010160921 0.00025628771)
(0.0081880903 0.00011101591 0.00023793456)
(0.0077246858 0.00011275118 0.00021798622)
(0.0073029895 0.00010953687 0.00019578738)
(0.0069155191 0.00010266029 0.00017296032)
(0.0065579578 9.3267236e-05 0.0001510852)
(0.006229001 8.2539593e-05 0.00013089045)
(0.005927585 7.1446832e-05 0.00011261412)
(0.0056522063 6.067336e-05 9.6309239e-05)
(0.0054012005 5.0670808e-05 8.1936268e-05)
(0.0051729477 4.1706608e-05 6.9390833e-05)
(0.004965887 3.3898116e-05 5.8529098e-05)
(0.0047784814 2.7249953e-05 4.9189879e-05)
(0.0046092054 2.1693074e-05 4.1208773e-05)
(0.0044565535 1.7117437e-05 3.4426144e-05)
(0.0043190553 1.3395519e-05 2.8691659e-05)
(0.0041952917 1.0397812e-05 2.3866804e-05)
(0.0040839086 8.0023311e-06 1.9826012e-05)
(0.0039836292 6.0997707e-06 1.6456861e-05)
(0.0038932634 4.5956635e-06 1.3659715e-05)
(0.0038117126 3.410675e-06 1.1347012e-05)
(0.0037379734 2.4799305e-06 9.4422921e-06)
(0.0036711359 1.7515123e-06 7.8790888e-06)
(0.0036103859 1.1749059e-06 6.6010312e-06)
(0.0035549935 7.2234145e-07 5.5561187e-06)
(0.0035043108 3.7342545e-07 4.7060694e-06)
(0.0034577717 1.0569691e-07 4.016345e-06)
(0.0034148763 -9.9088823e-08 3.4574134e-06)
(0.0033751872 -2.5333607e-07 3.0054958e-06)
(0.0033383243 -3.6639915e-07 2.6409748e-06)
(0.0033039576 -4.4577946e-07 2.3475728e-06)
(0.0032718009 -4.974827e-07 2.111827e-06)
(0.0032416065 -5.2634621e-07 1.9226414e-06)
(0.0032131599 -5.36311e-07 1.7709146e-06)
(0.0031862758 -5.3064086e-07 1.6492021e-06)
(0.0031607936 -5.1206293e-07 1.5514417e-06)
(0.0031365743 -4.8287252e-07 1.4727108e-06)
(0.0031134976 -4.4500739e-07 1.4090336e-06)
(0.0030914586 -4.001109e-07 1.3572063e-06)
(0.0030703663 -3.4957988e-07 1.3146568e-06)
(0.0030501409 -2.9459564e-07 1.2793309e-06)
(0.0030307129 -2.3617104e-07 1.2495923e-06)
(0.0030120207 -1.7516686e-07 1.2241404e-06)
(0.0029940105 -1.1232284e-07 1.201954e-06)
(0.0029766343 -4.8269256e-08 1.182224e-06)
(0.0029598495 1.6449641e-08 1.1643204e-06)
(0.0029436181 8.1356348e-08 1.1477522e-06)
(0.002927906 1.4602524e-07 1.1321251e-06)
(0.0029126825 2.1005793e-07 1.1171184e-06)
(0.0028979201 2.7304861e-07 1.1024388e-06)
(0.0028835935 3.3454174e-07 1.0876605e-06)
(0.0028696773 3.9432387e-07 1.072202e-06)
(0.0028561514 4.5704975e-07 1.0590092e-06)
(0.0028429997 5.2060007e-07 1.0472578e-06)
(0.0028302035 5.8225392e-07 1.0356079e-06)
(0.0028177449 6.4163792e-07 1.0238014e-06)
(0.0028056084 6.990195e-07 1.0118751e-06)
(0.0027937799 7.5456021e-07 9.9986941e-07)
(0.0027822461 8.0834946e-07 9.8781161e-07)
(0.0027709946 8.604681e-07 9.7571815e-07)
(0.0027600137 9.110252e-07 9.6360262e-07)
(0.0027492926 9.6019498e-07 9.5144787e-07)
(0.0027388207 1.0080068e-06 9.3926743e-07)
(0.0027285887 1.0528502e-06 9.2746475e-07)
(0.0027185878 1.0958661e-06 9.1582897e-07)
(0.0027088089 1.1374996e-06 9.042537e-07)
(0.0026992438 1.1777665e-06 8.9275973e-07)
(0.0026898847 1.2166576e-06 8.813662e-07)
(0.0026807244 1.2541708e-06 8.7007954e-07)
(0.0026717559 1.2903138e-06 8.5890682e-07)
(0.0026629726 1.3251067e-06 8.4785287e-07)
(0.0026543682 1.3585727e-06 8.3692209e-07)
(0.0026459367 1.3907386e-06 8.2612135e-07)
(0.0026376723 1.4216361e-06 8.1545356e-07)
(0.0026295698 1.4512895e-06 8.0491908e-07)
(0.0026216238 1.479731e-06 7.9452284e-07)
(0.0026138294 1.5069904e-06 7.8426286e-07)
(0.002606182 1.5330931e-06 7.7413961e-07)
(0.0025986769 1.5580627e-06 7.6415184e-07)
(0.0025913099 1.5819195e-06 7.5429451e-07)
(0.0025840769 1.6046795e-06 7.4456408e-07)
(0.0025769739 1.6263479e-06 7.3495214e-07)
(0.0025699972 1.6469218e-06 7.2544829e-07)