/*--------------------------------*- C++ -*----------------------------------*\
  =========                 |
  \\      /  F ield         | OpenFOAM: The Open Source CFD Toolbox
   \\    /   O peration     | Website:  https://openfoam.org
    \\  /    A nd           | Version:  7
     \\/     M anipulation  |
\*---------------------------------------------------------------------------*/
FoamFile
{
    version     2.0;
    format      ascii;
    class       volVectorField;
    location    "2400/water";
    object      U;
}
// * * * * * * * * * * * * * * * * * * * * * * * * * * * * * * * * * * * * * //

dimensions      [0 1 -1 0 0 0 0];

internalField   nonuniform List<vector> 
54000
(
(0.0090020934 0.00020305973 0.00020444027)
(0.0083186447 0.00023622738 0.00023904411)
(0.0073695241 0.00021363852 0.00021763527)
(0.0063566114 0.00018488016 0.00018965819)
(0.0054486673 0.00015530835 0.00016048633)
(0.0046741594 0.00012529952 0.00013052937)
(0.0040193038 9.7052611e-05 0.00010203017)
(0.0034740067 7.2578999e-05 7.7073287e-05)
(0.0030302461 5.2876127e-05 5.6738329e-05)
(0.0026757323 3.8068151e-05 4.1216512e-05)
(0.0023947254 2.7637703e-05 3.003714e-05)
(0.0021713898 2.0689033e-05 2.2336508e-05)
(0.0019919695 1.623616e-05 1.7152703e-05)
(0.0018455015 1.3416236e-05 1.3643172e-05)
(0.0017237326 1.1582488e-05 1.1179122e-05)
(0.0016206928 1.0304892e-05 9.3455806e-06)
(0.0015321593 9.3257907e-06 7.895715e-06)
(0.0014551546 8.5052956e-06 6.6953107e-06)
(0.0013875459 7.7746337e-06 5.6760574e-06)
(0.0013277612 7.1034281e-06 4.8034861e-06)
(0.001274601 6.4798501e-06 4.0581556e-06)
(0.0012271179 5.8999462e-06 3.4261574e-06)
(0.0011845424 5.3625317e-06 2.895071e-06)
(0.001146235 4.8670219e-06 2.4526293e-06)
(0.0011116558 4.4125996e-06 2.086976e-06)
(0.0010803434 3.9980129e-06 1.7867452e-06)
(0.0010519002 3.62146e-06 1.5416128e-06)
(0.0010259819 3.2805939e-06 1.342185e-06)
(0.001002289 2.9733952e-06 1.1797303e-06)
(0.00098056199 2.6979488e-06 1.0463187e-06)
(0.00096057571 2.4519199e-06 9.3658975e-07)
(0.00094213242 2.2325668e-06 8.4693358e-07)
(0.00092505792 2.0373865e-06 7.7316598e-07)
(0.00090920047 1.8640889e-06 7.1184182e-07)
(0.00089442818 1.7104629e-06 6.6046616e-07)
(0.0008806259 1.5743829e-06 6.1707371e-07)
(0.00086769295 1.4538617e-06 5.8005389e-07)
(0.00085554128 1.3470712e-06 5.4811532e-07)
(0.00084409387 1.2523498e-06 5.2023953e-07)
(0.00083328322 1.1681988e-06 4.9562832e-07)
(0.00082305015 1.0932616e-06 4.736534e-07)
(0.00081334267 1.02623e-06 4.5378291e-07)
(0.00080411486 9.6585992e-07 4.3554345e-07)
(0.00079532615 9.1131122e-07 4.1865103e-07)
(0.0007869407 8.6191712e-07 4.0290677e-07)
(0.00077892675 8.1708292e-07 3.8816768e-07)
(0.00077125603 7.7627637e-07 3.7432108e-07)
(0.0007639033 7.3902611e-07 3.6127614e-07)
(0.00075684597 7.0491454e-07 3.4896353e-07)
(0.00075006373 6.7357522e-07 3.3733067e-07)
(0.00074353821 6.4469436e-07 3.2633662e-07)
(0.00073725293 6.1802457e-07 3.1581837e-07)
(0.00073119313 5.9334706e-07 3.0574419e-07)
(0.00072534528 5.7041935e-07 2.9621072e-07)
(0.00071969687 5.4902513e-07 2.8716653e-07)
(0.00071423653 5.2901558e-07 2.7854317e-07)
(0.00070895386 5.1027319e-07 2.7031171e-07)
(0.00070383928 4.9268732e-07 2.6244818e-07)
(0.00069888397 4.7614513e-07 2.5493292e-07)
(0.00069407976 4.6055003e-07 2.4774458e-07)
(0.00068941911 4.4581984e-07 2.4086436e-07)
(0.00068489502 4.3188483e-07 2.3427618e-07)
(0.00068050098 4.1867959e-07 2.2796407e-07)
(0.00067623091 4.0614716e-07 2.2191248e-07)
(0.00067207915 3.9423544e-07 2.161057e-07)
(0.00066804042 3.8289694e-07 2.1053116e-07)
(0.00066410976 3.7209432e-07 2.0517743e-07)
(0.00066028251 3.6179427e-07 2.0003215e-07)
(0.00065655429 3.519626e-07 1.9508273e-07)
(0.00065292099 3.4256905e-07 1.9031815e-07)
(0.00064937872 3.3358566e-07 1.8572833e-07)
(0.00064592383 3.2498756e-07 1.8130677e-07)
(0.00064255288 3.1675148e-07 1.7704058e-07)
(0.0006392626 3.0885661e-07 1.7292549e-07)
(0.00063604992 3.0128257e-07 1.6895179e-07)
(0.00063291191 2.9401317e-07 1.6511151e-07)
(0.00062984583 2.8703082e-07 1.6139785e-07)
(0.00062684904 2.8032203e-07 1.5780271e-07)
(0.00062391907 2.7387205e-07 1.5432008e-07)
(0.00062105358 2.6766575e-07 1.509413e-07)
(0.00061825035 2.6169456e-07 1.4766076e-07)
(0.00061550726 2.5594635e-07 1.4447044e-07)
(0.00061282235 2.5040739e-07 1.4135918e-07)
(0.00061019373 2.4506892e-07 1.3832395e-07)
(0.00060761965 2.399188e-07 1.3535569e-07)
(0.00060509846 2.3494651e-07 1.3244855e-07)
(0.00060262862 2.3013471e-07 1.2959771e-07)
(0.00060020873 2.2546977e-07 1.2680488e-07)
(0.00059783744 2.2093112e-07 1.2407501e-07)
(0.00059551348 2.1649866e-07 1.2143365e-07)
(0.00059323555 2.1214951e-07 1.189289e-07)
(0.00059100214 2.0787214e-07 1.1666201e-07)
(0.00058881114 2.0369088e-07 1.1482985e-07)
(0.00058665898 1.997308e-07 1.1381971e-07)
(0.0005845387 1.9638323e-07 1.1440996e-07)
(0.00058243501 1.9487219e-07 1.183724e-07)
(0.00058031396 1.9977501e-07 1.309435e-07)
(0.0005781161 2.2258513e-07 1.6397658e-07)
(0.00057566369 1.9706883e-07 1.5080546e-07)
(0.000569062 7.889638e-07 7.5322526e-07)
(0.0095316863 0.0003313754 0.00022336697)
(0.0092716504 0.00041105942 0.00027052342)
(0.0087756651 0.00040317187 0.00026060062)
(0.0081527518 0.00038218754 0.00024252081)
(0.0075302151 0.00035309574 0.00022101125)
(0.0069425889 0.00031541063 0.00019648834)
(0.006391209 0.00027309198 0.00017102969)
(0.0058791845 0.00023030694 0.00014652546)
(0.0054120202 0.00019001855 0.00012410997)
(0.0049926512 0.00015423459 0.00010436627)
(0.004620592 0.00012408347 8.7479017e-05)
(0.0042931332 9.9809402e-05 7.3327495e-05)
(0.0040063965 8.0956424e-05 6.1601504e-05)
(0.0037559538 6.667221e-05 5.1918794e-05)
(0.0035372541 5.5985799e-05 4.3907444e-05)
(0.003345947 4.7992055e-05 3.7246644e-05)
(0.0031780884 4.194171e-05 3.1677529e-05)
(0.0030302311 3.7262446e-05 2.6997921e-05)
(0.0028994324 3.3540996e-05 2.3051138e-05)
(0.0027832152 3.0490243e-05 1.9714593e-05)
(0.0026795075 2.7915734e-05 1.6890543e-05)
(0.0025865783 2.5687842e-05 1.4499382e-05)
(0.002502978 2.3720895e-05 1.2475015e-05)
(0.0024274871 2.1958432e-05 1.0761725e-05)
(0.0023590736 2.0362993e-05 9.3122308e-06)
(0.0022968589 1.8909453e-05 8.0861287e-06)
(0.0022400906 1.7580767e-05 7.0489639e-06)
(0.0021881216 1.6364898e-05 6.1714966e-06)
(0.0021403932 1.5251963e-05 5.4283133e-06)
(0.0020964214 1.4233849e-05 4.7973496e-06)
(0.0020557868 1.330304e-05 4.260482e-06)
(0.0020181236 1.2451986e-05 3.802704e-06)
(0.0019831119 1.1673909e-05 3.4109596e-06)
(0.0019504718 1.0962754e-05 3.0744196e-06)
(0.0019199589 1.0312854e-05 2.7842604e-06)
(0.0018913593 9.7188349e-06 2.5331798e-06)
(0.0018644851 9.1756452e-06 2.3150741e-06)
(0.0018391716 8.6785715e-06 2.1248313e-06)
(0.0018152735 8.223242e-06 1.9581834e-06)
(0.0017926629 7.805621e-06 1.8115676e-06)
(0.0017712268 7.4219976e-06 1.6820112e-06)
(0.001750865 7.0689368e-06 1.5670702e-06)
(0.0017314886 6.7432691e-06 1.4647426e-06)
(0.0017130186 6.4422721e-06 1.3732755e-06)
(0.0016953848 6.1635567e-06 1.2911591e-06)
(0.0016785241 5.9049776e-06 1.217119e-06)
(0.00166238 5.6646091e-06 1.1500842e-06)
(0.0016469019 5.4407242e-06 1.0891487e-06)
(0.001632044 5.2317767e-06 1.0335527e-06)
(0.0016177648 5.036384e-06 9.8265471e-07)
(0.0016040271 4.8533228e-06 9.3589399e-07)
(0.0015907965 4.681562e-06 8.9273773e-07)
(0.0015780424 4.5201554e-06 8.5278621e-07)
(0.0015657364 4.3681523e-06 8.1576919e-07)
(0.0015538526 4.2246829e-06 7.8138568e-07)
(0.0015423672 4.0890604e-06 7.493445e-07)
(0.0015312583 3.9607276e-06 7.1941238e-07)
(0.0015205058 3.8391521e-06 6.9138733e-07)
(0.0015100909 3.7238136e-06 6.6509396e-07)
(0.0014999963 3.6142441e-06 6.4038008e-07)
(0.0014902061 3.5100293e-06 6.1710921e-07)
(0.0014807053 3.4107987e-06 5.951607e-07)
(0.00147148 3.3162127e-06 5.7442814e-07)
(0.0014625175 3.2259592e-06 5.5481499e-07)
(0.0014538055 3.1397559e-06 5.3623618e-07)
(0.0014453328 3.0573347e-06 5.1861361e-07)
(0.0014370889 2.9784695e-06 5.0187838e-07)
(0.0014290637 2.9029581e-06 4.8596759e-07)
(0.001421248 2.8306026e-06 4.7082352e-07)
(0.001413633 2.7612178e-06 4.5639337e-07)
(0.0014062103 2.6946327e-06 4.4262933e-07)
(0.0013989723 2.6306896e-06 4.2948754e-07)
(0.0013919116 2.5692447e-06 4.1693033e-07)
(0.0013850211 2.5101632e-06 4.0492079e-07)
(0.0013782945 2.453319e-06 3.9342528e-07)
(0.0013717253 2.3985955e-06 3.8241148e-07)
(0.0013653078 2.3458848e-06 3.7185192e-07)
(0.0013590364 2.295086e-06 3.617168e-07)
(0.0013529058 2.246106e-06 3.5198464e-07)
(0.001346911 2.1988516e-06 3.4262654e-07)
(0.0013410472 2.1532419e-06 3.3362041e-07)
(0.0013353099 2.1091967e-06 3.2494612e-07)
(0.001329695 2.0666368e-06 3.1657807e-07)
(0.0013241983 2.0254875e-06 3.0849974e-07)
(0.001318816 1.9856731e-06 3.0069087e-07)
(0.0013135446 1.947113e-06 2.9313031e-07)
(0.0013083808 1.9097257e-06 2.8580474e-07)
(0.0013033213 1.8734235e-06 2.7870253e-07)
(0.0012983632 1.8381137e-06 2.7181693e-07)
(0.0012935038 1.803714e-06 2.6515401e-07)
(0.0012887402 1.7701703e-06 2.5874288e-07)
(0.0012840698 1.7375328e-06 2.526493e-07)
(0.0012794889 1.706122e-06 2.4701394e-07)
(0.0012749925 1.676909e-06 2.4211333e-07)
(0.001270572 1.6524669e-06 2.3851805e-07)
(0.0012662098 1.639332e-06 2.3765976e-07)
(0.0012618709 1.6545768e-06 2.4458242e-07)
(0.0012574959 1.7463721e-06 2.7712505e-07)
(0.0012529717 2.0376708e-06 2.6526396e-07)
(0.0012433358 2.9514821e-06 1.3525331e-06)
(0.0095221617 0.00021179965 0.00022180581)
(0.009269783 0.00029872516 0.00026628967)
(0.0088657772 0.00031669844 0.00025526743)
(0.0083755729 0.000317438 0.00023864265)
(0.0078888426 0.00030841043 0.00021987851)
(0.0074276349 0.00028848207 0.00019850458)
(0.006988258 0.00026048391 0.00017617916)
(0.0065698164 0.00022855168 0.00015444521)
(0.0061756011 0.00019596771 0.00013413534)
(0.0058087146 0.00016504408 0.00011567593)
(0.0054706295 0.00013728621 9.9270839e-05)
(0.0051615551 0.00011345265 8.4947831e-05)
(0.0048808654 9.3684507e-05 7.2600738e-05)
(0.0046272998 7.7712988e-05 6.2044899e-05)
(0.0043991196 6.5057025e-05 5.3064542e-05)
(0.0041942886 5.5163887e-05 4.5443629e-05)
(0.0040106431 4.7493346e-05 3.8982753e-05)
(0.0038460219 4.1561377e-05 3.350638e-05)
(0.0036983537 3.6958193e-05 2.8864074e-05)
(0.0035657105 3.3351175e-05 2.4928487e-05)
(0.0034463343 3.0479501e-05 2.1592135e-05)
(0.003338646 2.8144768e-05 1.8764098e-05)
(0.003241243 2.6200155e-05 1.6367138e-05)
(0.0031528887 2.4539753e-05 1.4335368e-05)
(0.0030724986 2.3088868e-05 1.2612489e-05)
(0.0029991252 2.1796112e-05 1.1150134e-05)
(0.0029319421 2.0626904e-05 9.9064825e-06)
(0.0028702292 1.9558163e-05 8.8458157e-06)
(0.0028133589 1.8574038e-05 7.9385379e-06)
(0.0027607855 1.7663623e-05 7.1598235e-06)
(0.0027120345 1.6818834e-05 6.4890355e-06)
(0.0026666927 1.6033067e-05 5.9090206e-06)
(0.0026243991 1.5301097e-05 5.4052722e-06)
(0.0025848382 1.4618819e-05 4.9656519e-06)
(0.0025477347 1.3982713e-05 4.5801146e-06)
(0.0025128472 1.3389544e-05 4.2403265e-06)
(0.002479964 1.2836281e-05 3.9393558e-06)
(0.0024488994 1.2320058e-05 3.6714255e-06)
(0.0024194896 1.1838144e-05 3.4317262e-06)
(0.00239159 1.138794e-05 3.2162512e-06)
(0.0023650729 1.0966985e-05 3.0216598e-06)
(0.0023398247 1.0572997e-05 2.8451734e-06)
(0.0023157449 1.0203872e-05 2.6844749e-06)
(0.0022927433 9.8575787e-06 2.5375945e-06)
(0.0022707398 9.5322148e-06 2.4028643e-06)
(0.002249662 9.2260274e-06 2.2788669e-06)
(0.0022294453 8.9374178e-06 2.1644004e-06)
(0.0022100312 8.6649273e-06 2.0584378e-06)
(0.0021913666 8.4072369e-06 1.9601005e-06)
(0.0021734038 8.1631534e-06 1.8686314e-06)
(0.0021560989 7.9316204e-06 1.7833668e-06)
(0.0021394122 7.7117238e-06 1.7037078e-06)
(0.0021233074 7.5026009e-06 1.6291522e-06)
(0.0021077512 7.3033773e-06 1.5592835e-06)
(0.0020927129 7.1131879e-06 1.49372e-06)
(0.0020781645 6.9314157e-06 1.432104e-06)
(0.0020640799 6.757605e-06 1.374114e-06)
(0.0020504351 6.5912612e-06 1.3194619e-06)
(0.0020372075 6.4318798e-06 1.2678951e-06)
(0.0020243766 6.2790062e-06 1.2191868e-06)
(0.0020119231 6.1322418e-06 1.1731328e-06)
(0.001999829 5.991221e-06 1.1295441e-06)
(0.0019880776 5.8556121e-06 1.0882505e-06)
(0.0019766531 5.7251036e-06 1.0490956e-06)
(0.0019655411 5.5994078e-06 1.0119376e-06)
(0.0019547276 5.478244e-06 9.7664607e-07)
(0.0019441999 5.3613892e-06 9.4310149e-07)
(0.0019339458 5.2486478e-06 9.1118962e-07)
(0.0019239539 5.1398175e-06 8.8080765e-07)
(0.0019142135 5.0347026e-06 8.5186021e-07)
(0.0019047144 4.9331188e-06 8.2426096e-07)
(0.001895447 4.8348997e-06 7.979252e-07)
(0.0018864023 4.73989e-06 7.7278067e-07)
(0.0018775718 4.6479434e-06 7.4875641e-07)
(0.0018689473 4.5589233e-06 7.2578747e-07)
(0.0018605211 4.4727003e-06 7.0381444e-07)
(0.0018522861 4.3891534e-06 6.8277811e-07)
(0.0018442353 4.3081678e-06 6.6262572e-07)
(0.0018363621 4.2296389e-06 6.4330744e-07)
(0.0018286604 4.1534589e-06 6.2477736e-07)
(0.0018211241 4.0795288e-06 6.0698925e-07)
(0.0018137478 4.0077524e-06 5.8990161e-07)
(0.0018065261 3.9380344e-06 5.734734e-07)
(0.001799454 3.8702782e-06 5.5766753e-07)
(0.0017925266 3.8043823e-06 5.4244703e-07)
(0.0017857396 3.7402356e-06 5.2777845e-07)
(0.0017790885 3.6777258e-06 5.1362923e-07)
(0.0017725695 3.6167262e-06 4.9996978e-07)
(0.0017661787 3.5571056e-06 4.8677519e-07)
(0.0017599128 3.4987602e-06 4.7402442e-07)
(0.0017537682 3.4416537e-06 4.6170955e-07)
(0.0017477416 3.385964e-06 4.4983537e-07)
(0.0017418294 3.3323827e-06 4.3844187e-07)
(0.0017360272 3.2827911e-06 4.2764555e-07)
(0.0017303281 3.241778e-06 4.1776783e-07)
(0.0017247202 3.220041e-06 4.0999047e-07)
(0.001719183 3.2421556e-06 4.0985015e-07)
(0.001713691 3.3643441e-06 4.4114427e-07)
(0.0017081999 3.7072193e-06 4.7353394e-07)
(0.0016974804 4.4611208e-06 1.8634989e-06)
(0.0095012861 0.00013951169 0.00022248511)
(0.0092133349 0.00022408324 0.00026709763)
(0.0088018509 0.0002570094 0.00025529581)
(0.0083306071 0.00026690691 0.0002382081)
(0.0078754299 0.00026502158 0.00021939837)
(0.0074527063 0.0002529565 0.00019823245)
(0.0070564396 0.00023295893 0.00017634609)
(0.0066827538 0.00020836345 0.00015523049)
(0.006331873 0.00018203353 0.00013558338)
(0.0060047052 0.00015603739 0.00011769036)
(0.0057015056 0.00013180401 0.00010166909)
(0.0054220192 0.00011020725 8.7524314e-05)
(0.0051656909 9.16319e-05 7.5171986e-05)
(0.0049316845 7.6091187e-05 6.4472618e-05)
(0.0047188814 6.3363143e-05 5.5261149e-05)
(0.0045259349 5.3104941e-05 4.7366819e-05)
(0.0043513547 4.4932756e-05 4.0624899e-05)
(0.0041935865 3.847136e-05 3.4883032e-05)
(0.0040510752 3.3381245e-05 3.0003995e-05)
(0.0039223115 2.9370509e-05 2.5866182e-05)
(0.0038058643 2.6197262e-05 2.2362868e-05)
(0.0037004012 2.3666731e-05 1.9400962e-05)
(0.0036047 2.1625757e-05 1.6899611e-05)
(0.0035176529 1.9956327e-05 1.4788823e-05)
(0.0034382652 1.8569048e-05 1.3008104e-05)
(0.0033656513 1.7397361e-05 1.1504743e-05)
(0.0032990266 1.6392002e-05 1.0233523e-05)
(0.0032376995 1.551624e-05 9.1565346e-06)
(0.0031810636 1.4743888e-05 8.2421116e-06)
(0.0031285885 1.4056153e-05 7.4635753e-06)
(0.0030798115 1.3438894e-05 6.7985202e-06)
(0.0030343294 1.2881151e-05 6.2282221e-06)
(0.0029917905 1.2374496e-05 5.7369833e-06)
(0.0029518882 1.191242e-05 5.3116673e-06)
(0.0029143553 1.1489692e-05 4.9413543e-06)
(0.0028789586 1.1101927e-05 4.617001e-06)
(0.0028454946 1.074538e-05 4.3311217e-06)
(0.0028137847 1.0416774e-05 4.0775289e-06)
(0.0027836727 1.0113219e-05 3.8511078e-06)
(0.0027550209 9.8321208e-06 3.6476457e-06)
(0.0027277081 9.5711585e-06 3.4636646e-06)
(0.002701627 9.3282488e-06 3.2963008e-06)
(0.0026766823 9.1015141e-06 3.1431917e-06)
(0.0026527895 8.8892422e-06 3.0023827e-06)
(0.0026298729 8.6898901e-06 2.8722569e-06)
(0.0026078647 8.5020871e-06 2.7514712e-06)
(0.002586704 8.3246156e-06 2.6389102e-06)
(0.0025663358 8.1563946e-06 2.5336415e-06)
(0.0025467102 7.9964754e-06 2.434885e-06)
(0.002527782 7.8440251e-06 2.3419787e-06)
(0.0025095101 7.698335e-06 2.254361e-06)
(0.0024918566 7.5588086e-06 2.1715449e-06)
(0.0024747871 7.424898e-06 2.0931123e-06)
(0.0024582699 7.2960209e-06 2.0187202e-06)
(0.0024422756 7.1714397e-06 1.9480688e-06)
(0.0024267775 7.05093e-06 1.8808983e-06)
(0.0024117506 6.9343781e-06 1.8169532e-06)
(0.0023971715 6.8214893e-06 1.7560023e-06)
(0.0023830185 6.7119564e-06 1.6978523e-06)
(0.0023692714 6.6055376e-06 1.6423286e-06)
(0.0023559116 6.5020457e-06 1.5892721e-06)
(0.0023429214 6.4013098e-06 1.5385377e-06)
(0.0023302844 6.3031806e-06 1.489993e-06)
(0.0023179851 6.2075244e-06 1.4435163e-06)
(0.0023060089 6.1142019e-06 1.3989941e-06)
(0.0022943424 6.0230673e-06 1.3563257e-06)
(0.0022829727 5.9340575e-06 1.3154152e-06)
(0.0022718877 5.8471291e-06 1.2761706e-06)
(0.002261076 5.7622031e-06 1.2385021e-06)
(0.0022505267 5.6791988e-06 1.2023306e-06)
(0.0022402296 5.5980426e-06 1.1675834e-06)
(0.0022301752 5.5186727e-06 1.1341891e-06)
(0.0022203542 5.4410313e-06 1.1020814e-06)
(0.002210758 5.3650623e-06 1.0711996e-06)
(0.0022013784 5.2907176e-06 1.0414846e-06)
(0.0021922076 5.2179485e-06 1.0128825e-06)
(0.0021832381 5.1467098e-06 9.8533831e-07)
(0.0021744628 5.0769578e-06 9.5880377e-07)
(0.0021658752 5.0086502e-06 9.3323114e-07)
(0.0021574688 4.9417444e-06 9.0857485e-07)
(0.0021492375 4.8761973e-06 8.8479164e-07)
(0.0021411756 4.8119651e-06 8.618401e-07)
(0.0021332776 4.7489968e-06 8.3967979e-07)
(0.0021255383 4.6872377e-06 8.1827057e-07)
(0.0021179527 4.6266213e-06 7.975766e-07)
(0.0021105161 4.5670676e-06 7.7756065e-07)
(0.0021032242 4.508481e-06 7.5818353e-07)
(0.0020960727 4.4507548e-06 7.3941025e-07)
(0.0020890577 4.393775e-06 7.2120366e-07)
(0.0020821756 4.3374544e-06 7.0352073e-07)
(0.002075423 4.281811e-06 6.8632193e-07)
(0.0020687967 4.2271342e-06 6.6956192e-07)
(0.0020622937 4.174354e-06 6.5320357e-07)
(0.002055911 4.1258141e-06 6.3726134e-07)
(0.0020496453 4.0868299e-06 6.2198501e-07)
(0.0020434926 4.0687777e-06 6.0874704e-07)
(0.0020374483 4.0948766e-06 6.0452181e-07)
(0.0020315149 4.2094253e-06 6.3987839e-07)
(0.0020256647 4.4797477e-06 7.1688475e-07)
(0.0020144539 4.9057773e-06 2.269526e-06)
(0.0094902877 9.6726608e-05 0.00022289229)
(0.00917661 0.00016632333 0.00026788105)
(0.0087449456 0.00019969046 0.00025550648)
(0.0082664657 0.00021101604 0.00023762681)
(0.00781215 0.0002109939 0.0002181603)
(0.0073950862 0.0002028236 0.00019646328)
(0.0070087986 0.00018827265 0.00017418493)
(0.006648835 0.00016968865 0.0001528463)
(0.0063142174 0.00014929331 0.00013312182)
(0.0060045996 0.00012875288 0.0001152379)
(0.0057192201 0.00010923292 9.9256791e-05)
(0.0054570682 9.1490072e-05 8.514891e-05)
(0.0052170782 7.5923402e-05 7.2816211e-05)
(0.0049981259 6.2643332e-05 6.2119133e-05)
(0.0047989841 5.1561152e-05 5.2900047e-05)
(0.0046183234 4.2472277e-05 4.4997976e-05)
(0.0044547458 3.5118724e-05 3.8256897e-05)
(0.0043068267 2.9230544e-05 3.2530442e-05)
(0.0041731526 2.4550834e-05 2.7684339e-05)
(0.0040523509 2.084911e-05 2.3597362e-05)
(0.0039431142 1.7926911e-05 2.0161345e-05)
(0.0038442168 1.5618599e-05 1.7280682e-05)
(0.0037545253 1.3789365e-05 1.4871532e-05)
(0.0036730042 1.2331759e-05 1.2860863e-05)
(0.0035987172 1.1161537e-05 1.1185211e-05)
(0.0035308246 1.0213365e-05 9.7889743e-06)
(0.0034685786 9.4380808e-06 8.625072e-06)
(0.0034113173 8.7971271e-06 7.6543151e-06)
(0.0033584589 8.2627202e-06 6.84394e-06)
(0.0033094933 7.8140829e-06 6.1664557e-06)
(0.0032639753 7.4348244e-06 5.5988461e-06)
(0.0032215172 7.1121298e-06 5.1219284e-06)
(0.0031817817 6.8360961e-06 4.7197283e-06)
(0.0031444758 6.5990216e-06 4.3789736e-06)
(0.0031093448 6.3947805e-06 4.0886806e-06)
(0.0030761678 6.2184044e-06 3.8397983e-06)
(0.0030447526 6.0657971e-06 3.6248794e-06)
(0.003014932 5.9335275e-06 3.4378191e-06)
(0.0029865602 5.818697e-06 3.2736175e-06)
(0.0029595097 5.7188179e-06 3.1282039e-06)
(0.002933669 5.6317487e-06 2.9982618e-06)
(0.00290894 5.5556259e-06 2.8810978e-06)
(0.0028852364 5.4888238e-06 2.7745351e-06)
(0.0028624815 5.4299122e-06 2.6768111e-06)
(0.0028406075 5.3776405e-06 2.5865061e-06)
(0.0028195538 5.3309223e-06 2.5024725e-06)
(0.0027992664 5.2888077e-06 2.4237886e-06)
(0.0027796963 5.2504805e-06 2.3497106e-06)
(0.0027607998 5.2152408e-06 2.2796377e-06)
(0.002742537 5.1824952e-06 2.2130843e-06)
(0.0027248717 5.1517639e-06 2.149655e-06)
(0.0027077708 5.1226664e-06 2.0890224e-06)
(0.002691204 5.0948955e-06 2.0309203e-06)
(0.0026751435 5.0680861e-06 1.9751374e-06)
(0.0026595636 5.0410651e-06 1.9215396e-06)
(0.0026444411 5.0142598e-06 1.8699667e-06)
(0.002629754 4.9880191e-06 1.8202515e-06)
(0.0026154815 4.9620725e-06 1.7722789e-06)
(0.0026016045 4.936142e-06 1.7259604e-06)
(0.0025881054 4.9100854e-06 1.6812147e-06)
(0.0025749674 4.8838326e-06 1.6379666e-06)
(0.002562175 4.85734e-06 1.5961466e-06)
(0.0025497136 4.8305806e-06 1.5556927e-06)
(0.0025375693 4.8035389e-06 1.5165487e-06)
(0.0025257292 4.7761738e-06 1.4786617e-06)
(0.002514181 4.748383e-06 1.4419866e-06)
(0.0025029134 4.7202754e-06 1.4064832e-06)
(0.0024919154 4.6919156e-06 1.3721021e-06)
(0.0024811765 4.6632901e-06 1.3387971e-06)
(0.002470687 4.6344014e-06 1.3065292e-06)
(0.0024604377 4.605267e-06 1.2752604e-06)
(0.0024504197 4.5759082e-06 1.2449546e-06)
(0.0024406247 4.546346e-06 1.2155764e-06)
(0.0024310448 4.5166015e-06 1.1870935e-06)
(0.0024216723 4.4866964e-06 1.1594719e-06)
(0.0024125001 4.4566517e-06 1.1326852e-06)
(0.0024035213 4.4264899e-06 1.1066979e-06)
(0.0023947295 4.3962307e-06 1.0814832e-06)
(0.0023861184 4.3658901e-06 1.0570133e-06)
(0.0023776821 4.3354861e-06 1.0332604e-06)
(0.0023694149 4.3050313e-06 1.0101958e-06)
(0.0023613115 4.2745349e-06 9.8779598e-07)
(0.0023533667 4.243992e-06 9.6603042e-07)
(0.0023455757 4.2133956e-06 9.4487367e-07)
(0.0023379338 4.1827208e-06 9.2429949e-07)
(0.0023304365 4.1519264e-06 9.0427643e-07)
(0.0023230798 4.1209533e-06 8.8477227e-07)
(0.0023158598 4.0897233e-06 8.6575225e-07)
(0.0023087726 4.0581575e-06 8.4717318e-07)
(0.002301815 4.0261908e-06 8.2898112e-07)
(0.0022949838 3.9938771e-06 8.111077e-07)
(0.0022882766 3.9615304e-06 7.9346319e-07)
(0.002281691 3.9300789e-06 7.7594423e-07)
(0.0022752261 3.9016923e-06 7.5847777e-07)
(0.002268882 3.8809405e-06 7.4124638e-07)
(0.0022626608 3.876648e-06 7.257269e-07)
(0.0022565686 3.9043037e-06 7.1957966e-07)
(0.0022506189 3.9866547e-06 7.5579898e-07)
(0.0022447715 4.1390989e-06 8.4931809e-07)
(0.002233564 4.2832252e-06 2.4122117e-06)
(0.0094843561 6.6886587e-05 0.00022303624)
(0.0091549219 0.00011904886 0.00026838771)
(0.0087072816 0.00014772497 0.00025588053)
(0.0082191888 0.00015892952 0.00023765677)
(0.0077602858 0.00016026049 0.00021787143)
(0.0073412804 0.00015505102 0.00019586613)
(0.0069552494 0.00014481701 0.00017327438)
(0.0065978366 0.00013121474 0.00015165024)
(0.0062677954 0.00011592881 0.00013169211)
(0.0059642872 0.00010028521 0.0001136244)
(0.0056860598 8.5214432e-05 9.7497522e-05)
(0.0054316726 7.1330407e-05 8.3272196e-05)
(0.0051997008 5.8984299e-05 7.0844884e-05)
(0.0049887459 4.8311754e-05 6.0073372e-05)
(0.0047973943 3.9291582e-05 5.079889e-05)
(0.0046242055 3.1804353e-05 4.2859902e-05)
(0.0044677269 2.5679086e-05 3.6099807e-05)
(0.0043265179 2.0725785e-05 3.0371291e-05)
(0.0041991724 1.6756344e-05 2.5538702e-05)
(0.004084339 1.3596837e-05 2.1479083e-05)
(0.0039807371 1.1093753e-05 1.8082323e-05)
(0.0038871692 9.116163e-06 1.525079e-05)
(0.0038025288 7.5553796e-06 1.2898647e-05)
(0.003725804 6.323134e-06 1.0950986e-05)
(0.0036560786 5.348818e-06 9.3426782e-06)
(0.0035925304 4.5751815e-06 8.0166144e-06)
(0.0035344253 3.9620985e-06 6.9239488e-06)
(0.0034811131 3.4726266e-06 6.0250732e-06)
(0.0034320221 3.0815201e-06 5.2862639e-06)
(0.0033866501 2.7702772e-06 4.6792097e-06)
(0.0033445586 2.5236736e-06 4.1805208e-06)
(0.0033053662 2.3295865e-06 3.7707527e-06)
(0.0032687419 2.1784974e-06 3.4337455e-06)
(0.0032343982 2.0629055e-06 3.1561115e-06)
(0.0032020863 1.9768085e-06 2.9267978e-06)
(0.0031715907 1.9153168e-06 2.7367039e-06)
(0.0031427248 1.8743798e-06 2.5783562e-06)
(0.0031153267 1.850605e-06 2.4456299e-06)
(0.0030892563 1.8411238e-06 2.3335234e-06)
(0.0030643915 1.8434971e-06 2.2379668e-06)
(0.003040626 1.8556431e-06 2.1556637e-06)
(0.0030178671 1.8757801e-06 2.0839519e-06)
(0.0029960335 1.9023799e-06 2.0206947e-06)
(0.0029750538 1.9341325e-06 1.9641822e-06)
(0.0029548648 1.9699133e-06 1.9130538e-06)
(0.0029354109 2.0087611e-06 1.8662276e-06)
(0.0029166424 2.0498562e-06 1.8228522e-06)
(0.0028985148 2.0925081e-06 1.7822569e-06)
(0.0028809885 2.1361359e-06 1.7439148e-06)
(0.0028640277 2.1802683e-06 1.7074099e-06)
(0.0028476 2.224549e-06 1.6724139e-06)
(0.0028316758 2.2687596e-06 1.6386548e-06)
(0.0028162284 2.3128944e-06 1.6058714e-06)
(0.0028012324 2.3570789e-06 1.5738233e-06)
(0.0027866658 2.3978701e-06 1.543189e-06)
(0.0027725089 2.4362341e-06 1.5136874e-06)
(0.0027587418 2.4734407e-06 1.484888e-06)
(0.002745346 2.5095353e-06 1.4567018e-06)
(0.002732305 2.5443521e-06 1.4291169e-06)
(0.0027196032 2.5777728e-06 1.4021121e-06)
(0.0027072261 2.6097246e-06 1.3756647e-06)
(0.0026951602 2.6401661e-06 1.3497559e-06)
(0.0026833928 2.6690878e-06 1.3243745e-06)
(0.0026719116 2.6965041e-06 1.2995099e-06)
(0.0026607054 2.722372e-06 1.2751527e-06)
(0.0026497635 2.7463552e-06 1.2513136e-06)
(0.002639076 2.7689091e-06 1.2279775e-06)
(0.0026286333 2.790148e-06 1.205129e-06)
(0.0026184262 2.8099934e-06 1.1827612e-06)
(0.0026084461 2.8284313e-06 1.1608701e-06)
(0.0025986849 2.8454924e-06 1.1394505e-06)
(0.0025891348 2.8612179e-06 1.1184906e-06)
(0.0025797885 2.8756485e-06 1.0979866e-06)
(0.002570639 2.8888299e-06 1.077929e-06)
(0.0025616795 2.900806e-06 1.0583089e-06)
(0.0025529038 2.9116206e-06 1.039119e-06)
(0.0025443058 2.9213151e-06 1.0203499e-06)
(0.0025358796 2.9299307e-06 1.0019905e-06)
(0.0025276198 2.9375075e-06 9.840328e-07)
(0.002519521 2.9440783e-06 9.6646517e-07)
(0.0025115783 2.9496794e-06 9.4927872e-07)
(0.0025037869 2.9543375e-06 9.3246118e-07)
(0.0024961421 2.9580674e-06 9.1599997e-07)
(0.0024886396 2.9608821e-06 8.9987928e-07)
(0.0024812752 2.9627741e-06 8.8408511e-07)
(0.002474045 2.9637223e-06 8.6859454e-07)
(0.0024669452 2.963688e-06 8.533824e-07)
(0.0024599723 2.9626113e-06 8.3841428e-07)
(0.0024531231 2.9604302e-06 8.2364362e-07)
(0.0024463945 2.9570958e-06 8.0900389e-07)
(0.0024397839 2.9526509e-06 7.9439929e-07)
(0.0024332895 2.9473503e-06 7.7969456e-07)
(0.0024269099 2.9419136e-06 7.6470824e-07)
(0.0024206457 2.9379221e-06 7.4925963e-07)
(0.0024144993 2.9384196e-06 7.3336437e-07)
(0.0024084767 2.9484962e-06 7.1826409e-07)
(0.0024025877 2.9751255e-06 7.1113356e-07)
(0.002396846 3.0234603e-06 7.4331359e-07)
(0.0023911946 3.0808296e-06 8.3046695e-07)
(0.0023803644 3.0574255e-06 2.2999439e-06)
(0.0094810492 4.4090136e-05 0.00022308885)
(0.0091422796 7.9975483e-05 0.00026874495)
(0.0086839084 0.00010160921 0.00025628771)
(0.0081880903 0.00011101591 0.00023793456)
(0.0077246858 0.00011275118 0.00021798622)
(0.0073029895 0.00010953687 0.00019578738)
(0.0069155191 0.00010266029 0.00017296032)
(0.0065579578 9.3267236e-05 0.0001510852)
(0.006229001 8.2539594e-05 0.00013089045)
(0.005927585 7.1446832e-05 0.00011261412)
(0.0056522063 6.0673359e-05 9.6309239e-05)
(0.0054012005 5.0670807e-05 8.1936268e-05)
(0.0051729477 4.1706608e-05 6.9390832e-05)
(0.004965887 3.3898114e-05 5.8529096e-05)
(0.0047784814 2.7249954e-05 4.9189878e-05)
(0.0046092054 2.1693073e-05 4.1208773e-05)
(0.0044565535 1.7117437e-05 3.4426143e-05)
(0.0043190553 1.339552e-05 2.8691658e-05)
(0.0041952917 1.0397812e-05 2.3866804e-05)
(0.0040839086 8.0023311e-06 1.9826012e-05)
(0.0039836292 6.0997707e-06 1.6456861e-05)
(0.0038932634 4.5956621e-06 1.3659716e-05)
(0.0038117126 3.4106721e-06 1.1347012e-05)
(0.0037379734 2.4799281e-06 9.4422912e-06)
(0.0036711359 1.7515106e-06 7.8790898e-06)
(0.0036103859 1.1749051e-06 6.6010331e-06)
(0.0035549935 7.2233994e-07 5.5561206e-06)
(0.0035043108 3.7342472e-07 4.7060698e-06)
(0.0034577717 1.0569768e-07 4.016345e-06)
(0.0034148763 -9.9089041e-08 3.4574138e-06)
(0.0033751872 -2.5333607e-07 3.0054957e-06)
(0.0033383243 -3.6639984e-07 2.6409738e-06)
(0.0033039576 -4.4578024e-07 2.3475723e-06)
(0.0032718009 -4.9748448e-07 2.1118268e-06)
(0.0032416065 -5.2634624e-07 1.922642e-06)
(0.0032131599 -5.363109e-07 1.7709151e-06)
(0.0031862758 -5.3064053e-07 1.6492032e-06)
(0.0031607936 -5.120641e-07 1.5514409e-06)
(0.0031365743 -4.8287316e-07 1.4727117e-06)
(0.0031134976 -4.4500939e-07 1.4090329e-06)
(0.0030914586 -4.0011477e-07 1.3572059e-06)
(0.0030703663 -3.4957984e-07 1.3146571e-06)
(0.0030501409 -2.9459634e-07 1.279331e-06)
(0.0030307128 -2.3617143e-07 1.2495916e-06)
(0.0030120207 -1.751674e-07 1.22414e-06)
(0.0029940105 -1.1232332e-07 1.2019528e-06)
(0.0029766343 -4.8269521e-08 1.1822234e-06)
(0.0029598495 1.644798e-08 1.1643224e-06)
(0.0029436181 8.1354725e-08 1.1477534e-06)
(0.002927906 1.4602393e-07 1.1321248e-06)
(0.0029126825 2.1005693e-07 1.1171183e-06)
(0.0028979201 2.7304901e-07 1.1024382e-06)
(0.0028835935 3.345421e-07 1.0876599e-06)
(0.0028696773 3.9432354e-07 1.0722026e-06)
(0.0028561514 4.5704895e-07 1.0590089e-06)
(0.0028429997 5.2060027e-07 1.047258e-06)
(0.0028302035 5.8225334e-07 1.0356077e-06)
(0.0028177449 6.4163975e-07 1.0238014e-06)
(0.0028056084 6.9902057e-07 1.0118754e-06)
(0.0027937799 7.5456131e-07 9.9986976e-07)
(0.0027822461 8.0835038e-07 9.8781049e-07)
(0.0027709946 8.6046795e-07 9.7571847e-07)
(0.0027600137 9.1102471e-07 9.6360242e-07)
(0.0027492926 9.6019506e-07 9.5144695e-07)
(0.0027388207 1.0080058e-06 9.3926799e-07)
(0.0027285887 1.0528497e-06 9.2746575e-07)
(0.0027185878 1.0958668e-06 9.1582883e-07)
(0.0027088089 1.1375003e-06 9.0425447e-07)
(0.0026992438 1.1777667e-06 8.9275975e-07)
(0.0026898847 1.2166569e-06 8.8136569e-07)
(0.0026807244 1.2541704e-06 8.7008013e-07)
(0.0026717559 1.2903145e-06 8.5890705e-07)
(0.0026629726 1.3251079e-06 8.4785237e-07)
(0.0026543682 1.3585726e-06 8.3692256e-07)
(0.0026459367 1.3907403e-06 8.2612147e-07)
(0.0026376723 1.421636e-06 8.1545225e-07)
(0.0026295698 1.4512912e-06 8.0491937e-07)
(0.0026216238 1.4797319e-06 7.945228e-07)
(0.0026138294 1.5069909e-06 7.8426329e-07)
(0.002606182 1.5330924e-06 7.7413987e-07)
(0.0025986769 1.5580622e-06 7.6415159e-07)
(0.0025913099 1.581921e-06 7.5429487e-07)
(0.0025840769 1.6046817e-06 7.4456456e-07)
(0.0025769739 1.62635e-06 7.3495266e-07)