/*--------------------------------*- C++ -*----------------------------------*\
  =========                 |
  \\      /  F ield         | OpenFOAM: The Open Source CFD Toolbox
   \\    /   O peration     | Website:  https://openfoam.org
    \\  /    A nd           | Version:  7
     \\/     M anipulation  |
\*---------------------------------------------------------------------------*/
FoamFile
{
    version     2.0;
    format      ascii;
    class       surfaceScalarField;
    location    "1650/water";
    object      phi;
}
// * * * * * * * * * * * * * * * * * * * * * * * * * * * * * * * * * * * * * //

dimensions      [1 0 -1 0 0 0 0];

internalField   nonuniform List<scalar> 
156660
(
9.9057239e-05
6.0010402e-06
6.0528092e-06
8.6847498e-05
6.0555113e-06
6.1542307e-06
7.5687891e-05
5.5111362e-06
5.6484701e-06
6.5441704e-05
5.0404181e-06
5.205769e-06
5.6267661e-05
4.4956436e-06
4.6783992e-06
4.8318019e-05
3.8797648e-06
4.0698777e-06
4.1624776e-05
3.2524448e-06
3.4407981e-06
3.6124897e-05
2.660462e-06
2.839417e-06
3.1692235e-05
2.1345126e-06
2.2981489e-06
2.8162841e-05
1.6926975e-06
1.8366964e-06
2.5361437e-05
1.3399933e-06
1.4614113e-06
2.3124664e-05
1.0698477e-06
1.1669256e-06
2.1315127e-05
8.687542e-07
9.4078225e-07
1.9825714e-05
7.2110064e-07
7.6831272e-07
1.8577278e-05
6.1248246e-07
6.3595305e-07
1.7513255e-05
5.312522e-07
5.3277148e-07
1.6593744e-05
4.6879722e-07
4.5071348e-07
1.5790433e-05
4.1913718e-07
3.8417386e-07
1.5082784e-05
3.782907e-07
3.2935848e-07
1.4455417e-05
3.4367129e-07
2.8369562e-07
1.3896409e-05
3.136141e-07
2.4539333e-07
1.339622e-05
2.870445e-07
2.1314451e-07
1.2947015e-05
2.6326032e-07
1.8594509e-07
1.2542237e-05
2.4179367e-07
1.6298461e-07
1.2176318e-05
2.223221e-07
1.4359691e-07
1.1844484e-05
2.0461482e-07
1.2721881e-07
1.1542609e-05
1.8849496e-07
1.1337974e-07
1.1267116e-05
1.7381575e-07
1.0167794e-07
1.1014892e-05
1.6046271e-07
9.1760837e-08
1.0783252e-05
1.4833966e-07
8.3300595e-08
1.0569851e-05
1.3734904e-07
7.6052117e-08
1.0372614e-05
1.2738863e-07
6.9848324e-08
1.0189731e-05
1.1836808e-07
6.4514829e-08
1.001963e-05
1.1020449e-07
5.9896638e-08
9.8609388e-06
1.0281921e-07
5.5871673e-08
9.7124594e-06
9.6137963e-08
5.2341373e-08
9.5731439e-06
9.0091168e-08
4.9224372e-08
9.4420759e-06
8.4614462e-08
4.6453554e-08
9.3184531e-06
7.9648652e-08
4.3974118e-08
9.2015723e-06
7.5139714e-08
4.1741069e-08
9.0908166e-06
7.1038147e-08
3.9717568e-08
8.9856432e-06
6.7301122e-08
3.78723e-08
8.8855707e-06
6.3894252e-08
3.6178141e-08
8.7901757e-06
6.0780113e-08
3.4614936e-08
8.6990829e-06
5.7926177e-08
3.3166644e-08
8.6119591e-06
5.5303664e-08
3.1820146e-08
8.5285072e-06
5.2887398e-08
3.0564406e-08
8.4484618e-06
5.0655067e-08
2.9390282e-08
8.3715848e-06
4.8587055e-08
2.8289998e-08
8.2976614e-06
4.6666197e-08
2.7257216e-08
8.2264975e-06
4.4877469e-08
2.6286405e-08
8.1579202e-06
4.3208789e-08
2.5368518e-08
8.0917731e-06
4.1649063e-08
2.4498035e-08
8.0279108e-06
4.0186976e-08
2.367539e-08
7.9662005e-06
3.8812669e-08
2.2897537e-08
7.9065219e-06
3.7518398e-08
2.2160226e-08
7.8487639e-06
3.6297856e-08
2.1460158e-08
7.7928242e-06
3.5145176e-08
2.0794606e-08
7.7386083e-06
3.4054659e-08
2.0161162e-08
7.6860293e-06
3.3021349e-08
1.9557678e-08
7.6350062e-06
3.2040809e-08
1.8982236e-08
7.5854641e-06
3.1109069e-08
1.8433057e-08
7.537333e-06
3.0222613e-08
1.7908472e-08
7.4905478e-06
2.9378236e-08
1.7406976e-08
7.4450476e-06
2.8573007e-08
1.6927177e-08
7.4007756e-06
2.7804244e-08
1.6467787e-08
7.3576783e-06
2.7069592e-08
1.6027622e-08
7.3157056e-06
2.6367058e-08
1.5605603e-08
7.2748103e-06
2.5694658e-08
1.5200652e-08
7.2349479e-06
2.5050554e-08
1.4811818e-08
7.1960766e-06
2.4433089e-08
1.4438196e-08
7.158157e-06
2.384067e-08
1.4078935e-08
7.1211518e-06
2.3271923e-08
1.3733303e-08
7.0850258e-06
2.2725525e-08
1.3400548e-08
7.0497456e-06
2.2200213e-08
1.3079949e-08
7.0152798e-06
2.1694915e-08
1.2770919e-08
6.9815985e-06
2.1208582e-08
1.2472789e-08
6.9486733e-06
2.0740239e-08
1.2184926e-08
6.9164775e-06
2.0288969e-08
1.1906844e-08
6.8849857e-06
1.9853952e-08
1.1637847e-08
6.8541739e-06
1.9434341e-08
1.1377463e-08
6.8240193e-06
1.9029436e-08
1.1125111e-08
6.7945006e-06
1.8638485e-08
1.0880251e-08
6.7655975e-06
1.8260769e-08
1.064231e-08
6.7372912e-06
1.789554e-08
1.041078e-08
6.709564e-06
1.7542097e-08
1.0185085e-08
6.6823995e-06
1.7199648e-08
9.9648896e-09
6.6557824e-06
1.6867278e-08
9.7498212e-09
6.6296983e-06
1.6544159e-08
9.5399654e-09
6.6041331e-06
1.6229259e-08
9.3360268e-09
6.5790714e-06
1.5922003e-08
9.139687e-09
6.554494e-06
1.5622337e-08
8.9551171e-09
6.5303707e-06
1.5332586e-08
8.7906742e-09
6.5066467e-06
1.506047e-08
8.6636148e-09
6.4832094e-06
1.4827835e-08
8.609513e-09
6.4598103e-06
1.4693094e-08
8.706019e-09
6.4358387e-06
1.4826417e-08
9.1451224e-09
6.4096302e-06
1.5741749e-08
1.0466737e-08
6.3782855e-06
1.8026579e-08
1.3318226e-08
3.2300215e-08
2.7923578e-08
0.00010646494
4.1872385e-06
6.4599816e-06
0.0001002019
5.695418e-06
6.6231353e-06
9.3659588e-05
5.7790389e-06
6.2744098e-06
8.7011589e-05
5.6514782e-06
6.0369387e-06
8.0422927e-05
5.366912e-06
5.7173941e-06
7.4094022e-05
4.9022832e-06
5.3063862e-06
6.8167026e-05
4.3278135e-06
4.8516272e-06
6.2722565e-05
3.717891e-06
4.387032e-06
5.7799049e-05
3.1243144e-06
3.9337145e-06
5.3403345e-05
2.5820689e-06
3.5063328e-06
4.9517402e-05
2.1121062e-06
3.1138299e-06
4.6105482e-05
1.7220197e-06
2.7597474e-06
4.3121558e-05
1.4089355e-06
2.4437429e-06
4.0515558e-05
1.1637552e-06
2.163346e-06
3.8237948e-05
9.7485849e-07
1.9152336e-06
3.6242683e-05
8.3055973e-07
1.6959573e-06
3.4488759e-05
7.2043696e-07
1.5022849e-06
3.2940716e-05
6.3586293e-07
1.3313172e-06
3.1568463e-05
5.7005005e-07
1.180493e-06
3.0346733e-05
5.1784897e-07
1.0475522e-06
2.9254398e-05
4.7545955e-07
9.3049034e-07
2.8273782e-05
4.401396e-07
8.2752024e-07
2.7390054e-05
4.0994893e-07
7.3704008e-07
2.6590699e-05
3.8353955e-07
6.5760855e-07
2.5865102e-05
3.5998887e-07
5.8793071e-07
2.5204197e-05
3.3867631e-07
5.2684258e-07
2.4600205e-05
3.191836e-07
4.7330347e-07
2.4046429e-05
3.0120192e-07
4.2639018e-07
2.3537073e-05
2.8455205e-07
3.8526713e-07
2.3067119e-05
2.6911102e-07
3.4918239e-07
2.2632208e-05
2.5478166e-07
3.1747787e-07
2.2228528e-05
2.414738e-07
2.8959532e-07
2.1852744e-05
2.2911075e-07
2.6504126e-07
2.1501947e-05
2.1762891e-07
2.4337257e-07
2.1173591e-05
2.0696952e-07
2.2420573e-07
2.0865444e-05
1.9707568e-07
2.0720866e-07
2.0575549e-05
1.8789254e-07
1.9209398e-07
2.0302183e-05
1.7936721e-07
1.7861345e-07
2.0043829e-05
1.7144908e-07
1.6655322e-07
1.979915e-05
1.6408982e-07
1.5572941e-07
1.956696e-05
1.5724382e-07
1.4598405e-07
1.934621e-05
1.5086895e-07
1.3718217e-07
1.9135969e-05
1.4492652e-07
1.2920879e-07
1.8935407e-05
1.3937904e-07
1.2196304e-07
1.8743783e-05
1.3419229e-07
1.1535759e-07
1.8560435e-05
1.2933507e-07
1.0931728e-07
1.8384766e-05
1.2477908e-07
1.0377715e-07
1.8216241e-05
1.204985e-07
9.86813e-08
1.8054377e-05
1.1647012e-07
9.3981296e-08
1.7898734e-05
1.1267291e-07
8.9635374e-08
1.7748917e-05
1.0908824e-07
8.560701e-08
1.7604563e-05
1.0570005e-07
8.1862395e-08
1.7465345e-05
1.0249341e-07
7.8373262e-08
1.7330962e-05
9.9453019e-08
7.5116977e-08
1.7201138e-05
9.6564412e-08
7.207274e-08
1.7075619e-05
9.3816613e-08
6.9221132e-08
1.695417e-05
9.1201126e-08
6.6545116e-08
1.6836577e-05
8.8709151e-08
6.402954e-08
1.6722638e-05
8.6331966e-08
6.1661035e-08
1.661217e-05
8.4061764e-08
5.9427705e-08
1.6505001e-05
8.1891538e-08
5.7318826e-08
1.640097e-05
7.9814918e-08
5.5324849e-08
1.6299929e-05
7.7826142e-08
5.3437147e-08
1.620174e-05
7.5919849e-08
5.1647875e-08
1.6106272e-05
7.4091033e-08
4.9950123e-08
1.6013404e-05
7.2334985e-08
4.8337379e-08
1.5923022e-05
7.0647716e-08
4.6803846e-08
1.5835019e-05
6.9025724e-08
4.5344245e-08
1.5749294e-05
6.7465552e-08
4.3953689e-08
1.5665753e-05
6.5963761e-08
4.2627688e-08
1.5584307e-05
6.4517335e-08
4.1362176e-08
1.5504871e-05
6.3123414e-08
4.0153356e-08
1.5427365e-05
6.1779289e-08
3.8997794e-08
1.5351716e-05
6.0482532e-08
3.7892281e-08
1.5277852e-05
5.9230805e-08
3.6833878e-08
1.5205705e-05
5.8022e-08
3.5819754e-08
1.5135212e-05
5.6854013e-08
3.4847403e-08
1.5066313e-05
5.5724964e-08
3.3914374e-08
1.499895e-05
5.4633112e-08
3.3018431e-08
1.493307e-05
5.3576749e-08
3.2157466e-08
1.4868621e-05
5.2554207e-08
3.1329439e-08
1.4805554e-05
5.1563956e-08
3.0532436e-08
1.4743823e-05
5.0604537e-08
2.9764683e-08
1.4683386e-05
4.9674308e-08
2.9024393e-08
1.4624199e-05
4.8771849e-08
2.8309886e-08
1.4566226e-05
4.789546e-08
2.7619564e-08
1.4509431e-05
4.70435e-08
2.695198e-08
1.4453778e-05
4.6214131e-08
2.6305773e-08
1.4399237e-05
4.5405417e-08
2.5679882e-08
1.4345777e-05
4.4615712e-08
2.507377e-08
1.4293367e-05
4.3844243e-08
2.4487717e-08
1.4241972e-05
4.309286e-08
2.3923745e-08
1.4191548e-05
4.2369884e-08
2.3387133e-08
1.4142019e-05
4.1699303e-08
2.2889642e-08
1.4093249e-05
4.1141636e-08
2.2456635e-08
1.4044951e-05
4.0844646e-08
2.2146532e-08
1.3996485e-05
4.1169188e-08
2.212303e-08
1.3946229e-05
4.3012319e-08
2.2985389e-08
1.389015e-05
4.8540271e-08
2.5565794e-08
6.3281582e-08
5.0000876e-08
0.00010603565
2.7876425e-06
6.4750379e-06
0.00010074799
4.4145412e-06
6.5685292e-06
9.5493515e-05
4.8594028e-06
6.1741158e-06
9.0256432e-05
4.930369e-06
5.9581921e-06
8.5101366e-05
4.8311767e-06
5.6908012e-06
8.0102875e-05
4.5561761e-06
5.3445981e-06
7.5322251e-05
4.1469521e-06
4.9614853e-06
7.0803266e-05
3.6678925e-06
4.5689837e-06
6.6576264e-05
3.1701903e-06
4.1811255e-06
6.2660725e-05
2.690011e-06
3.8075976e-06
5.9065443e-05
2.2519319e-06
3.4554566e-06
5.5788936e-05
1.8697304e-06
3.1287957e-06
5.2820978e-05
1.5477473e-06
2.8291458e-06
5.014479e-05
1.2836302e-06
2.5563139e-06
4.7739304e-05
1.07123e-06
2.3091141e-06
4.5581183e-05
9.0281503e-07
2.0858661e-06
4.3646423e-05
7.7048779e-07
1.884709e-06
4.1911533e-05
6.6697374e-07
1.7037793e-06
4.0354306e-05
5.8598199e-07
1.541295e-06
3.8954268e-05
5.2230223e-07
1.3955849e-06
3.769288e-05
4.7175606e-07
1.265091e-06
3.6553576e-05
4.3107985e-07
1.1483634e-06
3.552169e-05
3.9778204e-07
1.0440533e-06
3.4584322e-05
3.6999882e-07
9.5090827e-07
3.3730181e-05
3.4635984e-07
8.6777017e-07
3.2949411e-05
3.2587759e-07
7.9356869e-07
3.2233419e-05
3.0784047e-07
7.2733485e-07
3.157471e-05
2.9172985e-07
6.6818103e-07
3.0966769e-05
2.7719269e-07
6.1530129e-07
3.0403928e-05
2.63981e-07
5.6797021e-07
2.9881258e-05
2.5190844e-07
5.2554315e-07
2.9394455e-05
2.4082711e-07
4.8745001e-07
2.8939761e-05
2.306216e-07
4.5318329e-07
2.8513895e-05
2.2120153e-07
4.2229389e-07
2.8113985e-05
2.1249196e-07
3.9438677e-07
2.7737518e-05
2.0442797e-07
3.691149e-07
2.7382285e-05
1.9695193e-07
3.4617385e-07
2.7046344e-05
1.9001177e-07
3.2529681e-07
2.6727982e-05
1.8355995e-07
3.0625045e-07
2.6425689e-05
1.7755274e-07
2.8883088e-07
2.6138123e-05
1.7195004e-07
2.7285986e-07
2.5864094e-05
1.6671517e-07
2.5818184e-07
2.5602546e-05
1.6181457e-07
2.4466093e-07
2.535253e-05
1.5721709e-07
2.3217765e-07
2.51132e-05
1.5289443e-07
2.2062725e-07
2.4883797e-05
1.4882097e-07
2.0991777e-07
2.4663634e-05
1.4497364e-07
1.9996811e-07
2.4452094e-05
1.413318e-07
1.9070709e-07
2.4248615e-05
1.3787697e-07
1.8207154e-07
2.405269e-05
1.3459267e-07
1.7400571e-07
2.3863854e-05
1.3146462e-07
1.6645991e-07
2.3681684e-05
1.2848058e-07
1.5938925e-07
2.3505794e-05
1.2562918e-07
1.5275413e-07
2.3335829e-05
1.228987e-07
1.4651969e-07
2.3171462e-05
1.2027637e-07
1.406546e-07
2.3012394e-05
1.1775476e-07
1.3513019e-07
2.2858345e-05
1.1532972e-07
1.2992043e-07
2.2709057e-05
1.1299539e-07
1.2500172e-07
2.2564291e-05
1.1074519e-07
1.203529e-07
2.2423824e-05
1.085735e-07
1.1595457e-07
2.2287451e-05
1.0647547e-07
1.1178925e-07
2.2154978e-05
1.0444698e-07
1.0784079e-07
2.2026226e-05
1.0248421e-07
1.0409459e-07
2.1901025e-05
1.0058353e-07
1.0053713e-07
2.1779218e-05
9.8741566e-08
9.7156168e-08
2.1660658e-05
9.6954931e-08
9.3940263e-08
2.1545205e-05
9.5221255e-08
9.0879032e-08
2.1432729e-05
9.3538789e-08
8.7962799e-08
2.1323107e-05
9.1905301e-08
8.518258e-08
2.1216222e-05
9.03185e-08
8.2530188e-08
2.1111965e-05
8.8776355e-08
7.9997893e-08
2.1010233e-05
8.7277088e-08
7.7578632e-08
2.0910927e-05
8.5818925e-08
7.5265866e-08
2.0813956e-05
8.4400328e-08
7.305345e-08
2.0719232e-05
8.3019682e-08
7.0935665e-08
2.0626671e-05
8.1675605e-08
6.8907205e-08
2.0536195e-05
8.0366789e-08
6.6963127e-08
2.0447729e-05
7.9091927e-08
6.5098774e-08
2.0361203e-05
7.7849817e-08
6.3309788e-08
2.0276548e-05
7.6639229e-08
6.1592066e-08
2.0193702e-05
7.5458994e-08
5.9941735e-08
2.0112602e-05
7.4307978e-08
5.8355212e-08
2.0033193e-05
7.318495e-08
5.682907e-08
1.9955419e-05
7.208861e-08
5.5359986e-08
1.9879228e-05
7.1017647e-08
5.3944846e-08
1.9804572e-05
6.9970438e-08
5.2580744e-08
1.9731406e-05
6.8945259e-08
5.1264819e-08
1.9659685e-05
6.7940113e-08
4.9994416e-08
1.9589371e-05
6.6953026e-08
4.8767033e-08
1.9520423e-05
6.5982336e-08
4.7580559e-08
1.9452807e-05
6.5028038e-08
4.6433126e-08
1.9386482e-05
6.4094098e-08
4.5323755e-08
1.9321404e-05
6.3194662e-08
4.4253081e-08
1.9257511e-05
6.2366336e-08
4.3225213e-08
1.9194705e-05
6.1695153e-08
4.2253144e-08
1.9132798e-05
6.1374092e-08
4.1377384e-08
1.9071394e-05
6.1822411e-08
4.0750636e-08
1.9009424e-05
6.3924739e-08
4.1057592e-08
1.8944661e-05
6.9304703e-08
4.3998839e-08
7.9170954e-08
7.4661551e-08
0.0001054937
1.9169871e-06
6.4880406e-06
0.00010005365
3.2729596e-06
6.5816335e-06
9.4926077e-05
3.8288995e-06
6.1580776e-06
8.9946373e-05
3.9838108e-06
5.9262629e-06
8.5163276e-05
3.9595077e-06
5.6547657e-06
8.0619137e-05
3.7899369e-06
5.3103784e-06
7.6329462e-05
3.5015547e-06
4.9350725e-06
7.230016e-05
3.1412013e-06
4.5559928e-06
6.8534206e-05
2.7514802e-06
4.1846641e-06
6.5032983e-05
2.3633493e-06
3.8278852e-06
6.1795789e-05
1.9984144e-06
3.490711e-06
5.8818843e-05
1.670376e-06
3.176301e-06
5.6094718e-05
1.3858295e-06
2.886043e-06
5.3612488e-05
1.1457944e-06
2.6200649e-06
5.1358373e-05
9.4764114e-07
2.3777043e-06
4.9316593e-05
7.867678e-07
2.1578272e-06
4.7470246e-05
6.5779543e-07
1.9590391e-06
4.5802069e-05
5.5532535e-07
1.7798252e-06
4.4295042e-05
4.7437112e-07
1.6186378e-06
4.293283e-05
4.1056668e-07
1.473948e-06
4.1700078e-05
3.6023237e-07
1.3442759e-06
4.0582591e-05
3.2035742e-07
1.2282094e-06
3.956742e-05
2.8853737e-07
1.1244154e-06
3.8642881e-05
2.6289068e-07
1.0316467e-06
3.7798527e-05
2.4196989e-07
9.4874402e-07
3.7025076e-05
2.2467705e-07
8.7465169e-07
3.6314324e-05
2.1018898e-07
8.0840408e-07
3.5659057e-05
1.9788604e-07
7.491104e-07
3.5052961e-05
1.8731586e-07
6.959728e-07
3.4490519e-05
1.781487e-07
6.482738e-07
3.3966922e-05
1.701317e-07
6.0537441e-07
3.3477973e-05
1.6306724e-07
5.6670865e-07
3.3020016e-05
1.5680295e-07
5.3177542e-07
3.2589865e-05
1.5122055e-07
5.0013243e-07
3.218474e-05
1.4622562e-07
4.7139138e-07
3.1802215e-05
1.4174072e-07
4.4521233e-07
3.1440168e-05
1.3770094e-07
4.2129808e-07
3.1096739e-05
1.3405093e-07
3.9938925e-07
3.0770297e-05
1.3074295e-07
3.7925954e-07
3.0459402e-05
1.2773517e-07
3.6071196e-07
3.0162787e-05
1.2499092e-07
3.4357477e-07
2.9879325e-05
1.2247779e-07
3.2769847e-07
2.960802e-05
1.2016731e-07
3.129527e-07
2.934798e-05
1.1803383e-07
2.9922355e-07
2.9098408e-05
1.1605462e-07
2.8641138e-07
2.885859e-05
1.1420983e-07
2.7442905e-07
2.8627882e-05
1.1248192e-07
2.6319999e-07
2.8405701e-05
1.1085556e-07
2.5265688e-07
2.819152e-05
1.0931755e-07
2.4274022e-07
2.7984859e-05
1.0785646e-07
2.3339756e-07
2.7785279e-05
1.0646276e-07
2.2458213e-07
2.7592378e-05
1.0512872e-07
2.1625213e-07
2.740579e-05
1.0384735e-07
2.0837036e-07
2.7225174e-05
1.0261117e-07
2.0090358e-07
2.705022e-05
1.0140747e-07
1.9382256e-07
2.6880641e-05
1.0023384e-07
1.8710042e-07
2.6716166e-05
9.9092366e-08
1.8071224e-07
2.6556546e-05
9.7980023e-08
1.7463559e-07
2.6401548e-05
9.6892519e-08
1.6885016e-07
2.6250957e-05
9.5827105e-08
1.6333744e-07
2.610457e-05
9.4781694e-08
1.5808045e-07
2.5962199e-05
9.3754749e-08
1.5306364e-07
2.5823666e-05
9.2744882e-08
1.482726e-07
2.5688804e-05
9.1750992e-08
1.4369411e-07
2.5557458e-05
9.0771752e-08
1.3931598e-07
2.5429481e-05
8.9805191e-08
1.3512693e-07
2.5304734e-05
8.8851488e-08
1.3111646e-07
2.5183087e-05
8.7911226e-08
1.2727468e-07
2.5064416e-05
8.6983891e-08
1.2359241e-07
2.4948604e-05
8.6068856e-08
1.2006119e-07
2.4835542e-05
8.5165758e-08
1.1667302e-07
2.4725124e-05
8.4274306e-08
1.1342046e-07
2.4617252e-05
8.3394242e-08
1.1029659e-07
2.4511832e-05
8.2525474e-08
1.0729479e-07
2.4408775e-05
8.1667759e-08
1.0440902e-07
2.4307997e-05
8.0820973e-08
1.0163344e-07
2.4209416e-05
7.9985011e-08
9.8962632e-08
2.4112956e-05
7.9159747e-08
9.6391546e-08
2.4018546e-05
7.8345051e-08
9.3915296e-08
2.3926115e-05
7.7540703e-08
9.1529326e-08
2.3835598e-05
7.6746562e-08
8.9229271e-08
2.3746933e-05
7.5962321e-08
8.7011034e-08
2.3660059e-05
7.5187632e-08
8.4870723e-08
2.3574922e-05
7.4421982e-08
8.280454e-08
2.3491466e-05
7.3664611e-08
8.0808923e-08
2.3409641e-05
7.2914596e-08
7.8880369e-08
2.33294e-05
7.2170688e-08
7.7015534e-08
2.3250698e-05
7.1431326e-08
7.5211044e-08
2.3173493e-05
7.069489e-08
7.3463638e-08
2.3097745e-05
6.996023e-08
7.1770095e-08
2.3023418e-05
6.922798e-08
7.0126984e-08
2.2950477e-05
6.8503514e-08
6.853117e-08
2.2878889e-05
6.7802903e-08
6.6979727e-08
2.2808619e-05
6.716508e-08
6.5471593e-08
2.2739625e-05
6.6675255e-08
6.4013357e-08
2.267185e-05
6.6507063e-08
6.2642297e-08
2.2605149e-05
6.6990749e-08
6.1532395e-08
2.2538888e-05
6.868605e-08
6.1499889e-08
2.2471121e-05
7.2226962e-08
6.4845121e-08
7.6722827e-08
9.8461319e-08
0.0001051979
1.3340885e-06
6.4961221e-06
9.9496561e-05
2.3731022e-06
6.6011947e-06
9.4262459e-05
2.9019224e-06
6.1610799e-06
8.9251186e-05
3.0856642e-06
5.9094197e-06
8.4493498e-05
3.0947347e-06
5.6224614e-06
8.0033635e-05
2.9846656e-06
5.265134e-06
7.5876907e-05
2.7790155e-06
4.8792667e-06
7.2014635e-05
2.5106843e-06
4.4927895e-06
6.8436293e-05
2.2128728e-06
4.116949e-06
6.5131387e-05
1.9107259e-06
3.7575292e-06
6.208941e-05
1.621732e-06
3.4186596e-06
5.9299432e-05
1.3573877e-06
3.1029661e-06
5.6749589e-05
1.1240344e-06
2.8116386e-06
5.4426788e-05
9.2377945e-07
2.5448157e-06
5.2316754e-05
7.5572797e-07
2.3019466e-06
5.0404313e-05
6.1717852e-07
2.0820303e-06
4.8673788e-05
5.0454348e-07
1.8837772e-06
4.7109414e-05
4.1397179e-07
1.7057274e-06
4.5695713e-05
3.4173648e-07
1.5463363e-06
4.4417792e-05
2.8445144e-07
1.4040359e-06
4.3261575e-05
2.3917113e-07
1.2772781e-06
4.2213952e-05
2.0341502e-07
1.1645652e-06
4.1262871e-05
1.7514741e-07
1.0644718e-06
4.039737e-05
1.5273235e-07
9.7565897e-07
3.9607583e-05
1.3487532e-07
8.9688142e-07
3.8884688e-05
1.2055571e-07
8.2701639e-07
3.8220848e-05
1.0901094e-07
7.6501857e-07
3.7609155e-05
9.9633858e-08
7.0994488e-07
3.7043542e-05
9.1977432e-08
6.6095086e-07
3.6518702e-05
8.5705824e-08
6.1728288e-07
3.6030009e-05
8.0552375e-08
5.7827309e-07
3.5573433e-05
7.630826e-08
5.4333415e-07
3.5145475e-05
7.2811255e-08
5.119503e-07
3.4743091e-05
6.9934134e-08
4.8367025e-07
3.4363641e-05
6.7575419e-08
4.5810066e-07
3.4004828e-05
6.5652877e-08
4.3489997e-07
3.3664659e-05
6.4098576e-08
4.137721e-07
3.3341393e-05
6.2855935e-08
3.9446097e-07
3.3033513e-05
6.1877036e-08
3.7674526e-07
3.2739693e-05
6.1121094e-08
3.6043427e-07
3.2458768e-05
6.0553069e-08
3.4536329e-07
3.2189712e-05
6.0142661e-08
3.3139055e-07
3.1931622e-05
5.9863653e-08
3.1839375e-07
3.1683696e-05
5.969313e-08
3.0626735e-07
3.1445219e-05
5.961125e-08
2.949201e-07
3.1215555e-05
5.9600645e-08
2.8427318e-07
3.0994132e-05
5.9646521e-08
2.7425807e-07
3.0780436e-05
5.9736167e-08
2.6481541e-07
3.0574002e-05
5.9858658e-08
2.5589332e-07
3.0374407e-05
6.0004922e-08
2.4744662e-07
3.0181267e-05
6.0167637e-08
2.3943546e-07
2.9994229e-05
6.0341233e-08
2.3182487e-07
2.9812971e-05
6.052181e-08
2.2458375e-07
2.9637193e-05
6.070445e-08
2.1768453e-07
2.9466629e-05
6.0867254e-08
2.111046e-07
2.9301024e-05
6.1016996e-08
2.0482179e-07
2.914014e-05
6.1160868e-08
1.9881566e-07
2.8983756e-05
6.1294953e-08
1.9306839e-07
2.8831669e-05
6.1415456e-08
1.8756389e-07
2.8683688e-05
6.1520949e-08
1.8228766e-07
2.8539633e-05
6.1610597e-08
1.7722634e-07
2.8399336e-05
6.1683783e-08
1.7236783e-07
2.8262639e-05
6.1740495e-08
1.6770089e-07
2.8129394e-05
6.1780695e-08
1.6321518e-07
2.7999461e-05
6.1803907e-08
1.589012e-07
2.7872709e-05
6.1807375e-08
1.5475035e-07
2.7749012e-05
6.1793563e-08
1.5075444e-07
2.7628253e-05
6.1764817e-08
1.4690558e-07
2.7510319e-05
6.1721007e-08
1.4319662e-07
2.7395105e-05
6.1662133e-08
1.3962085e-07
2.728251e-05
6.1588634e-08
1.3617203e-07
2.7172439e-05
6.1501057e-08
1.3284423e-07
2.7064802e-05
6.1399979e-08
1.2963191e-07
2.6959511e-05
6.1285959e-08
1.265299e-07
2.6856486e-05
6.1159532e-08
1.2353326e-07
2.6755649e-05
6.1021324e-08
1.2063732e-07
2.6656924e-05
6.0871868e-08
1.1783766e-07
2.6560242e-05
6.0711717e-08
1.1513014e-07
2.6465535e-05
6.0541361e-08
1.1251078e-07
2.6372738e-05
6.0361302e-08
1.0997578e-07
2.6281791e-05
6.0171913e-08
1.0752158e-07
2.6192636e-05
5.9973546e-08
1.0514472e-07
2.6105215e-05
5.9766325e-08
1.0284181e-07
2.6019477e-05
5.9550272e-08
1.0060973e-07
2.5935371e-05
5.932513e-08
9.8445276e-08
2.585285e-05
5.9090484e-08
9.6345408e-08
2.5771868e-05
5.8845502e-08
9.4306928e-08
2.5692384e-05
5.8588996e-08
9.2326729e-08
2.5614357e-05
5.83198e-08
9.040144e-08
2.5537753e-05
5.8037092e-08
8.852733e-08
2.5462539e-05
5.7741632e-08
8.6700219e-08
2.5388689e-05
5.7438406e-08
8.4915168e-08
2.5316184e-05
5.7141437e-08
8.3166621e-08
2.5245017e-05
5.6882566e-08
8.1449643e-08
2.51752e-05
5.6726051e-08
7.9765815e-08
2.510677e-05
5.6787914e-08
7.8149196e-08
2.5039729e-05
5.7251572e-08
7.6780973e-08
2.4973573e-05
5.8330911e-08
7.65102e-08
2.4906079e-05
5.9989458e-08
7.9732172e-08
6.0714973e-08
1.1287824e-07
0.00010503672
9.0789371e-07
6.5005614e-06
9.9140653e-05
1.6524914e-06
6.6166802e-06
9.3788329e-05
2.0825242e-06
6.1717217e-06
8.8708526e-05
2.2549373e-06
5.91053e-06
8.3909682e-05
2.278404e-06
5.6151748e-06
7.9437109e-05
2.2074821e-06
5.2497564e-06
7.5296201e-05
2.0645348e-06
4.8553893e-06
7.1474034e-05
1.8722543e-06
4.4605969e-06
6.7955013e-05
1.6547667e-06
4.0771269e-06
6.4723621e-05
1.4313505e-06
3.7107669e-06
6.1764423e-05
1.2154297e-06
3.3655007e-06
5.9062056e-05
1.015864e-06
3.0438911e-06
5.6601108e-05
8.3782743e-07
2.7471548e-06
5.4365944e-05
6.8344649e-07
2.475497e-06
5.2340648e-05
5.5258526e-07
2.2284383e-06
5.0509125e-05
4.4366547e-07
2.0050361e-06
4.8855299e-05
3.5433456e-07
1.8040352e-06
4.7363353e-05
2.819359e-07
1.6239821e-06
4.6017963e-05
2.2381346e-07
1.4633127e-06
4.4804502e-05
1.7749382e-07
1.3204181e-06
4.3709199e-05
1.4078088e-07
1.1936935e-06
4.2719248e-05
1.1179155e-07
1.081575e-06
4.1822875e-05
8.8954516e-08
9.8256582e-07
4.1009364e-05
7.0988014e-08
8.952547e-07
4.0269054e-05
5.6861862e-08
8.1832382e-07
3.9593306e-05
4.5719155e-08
7.5058476e-07
3.8974405e-05
3.6977882e-08
6.9093438e-07
3.8405585e-05
3.0067395e-08
6.3838633e-07
3.7880869e-05
2.4650854e-08
5.920424e-07
3.7395029e-05
2.043999e-08
5.5110606e-07
3.6943514e-05
1.7190291e-08
5.1487718e-07
3.6522366e-05
1.471671e-08
4.8273957e-07
3.6128148e-05
1.2874775e-08
4.541539e-07
3.5757883e-05
1.1549881e-08
4.2864945e-07
3.5408991e-05
1.0650738e-08
4.0581705e-07
3.5079238e-05
1.010359e-08
3.8530228e-07
3.4766689e-05
9.8482455e-09
3.6679879e-07
3.4469668e-05
9.8351376e-09
3.5004235e-07
3.4186716e-05
1.0022908e-08
3.3480551e-07
3.3916567e-05
1.0377028e-08
3.2089288e-07
3.3658116e-05
1.086806e-08
3.0813659e-07
3.3410395e-05
1.1470992e-08
2.9639283e-07
3.3172556e-05
1.2164247e-08
2.8553825e-07
3.2943852e-05
1.2929319e-08
2.7546722e-07
3.2723625e-05
1.3750169e-08
2.6608894e-07
3.2511286e-05
1.46131e-08
2.5732572e-07
3.2306316e-05
1.5506204e-08
2.4911067e-07
3.2108246e-05
1.6419592e-08
2.4138623e-07
3.1916658e-05
1.7344648e-08
2.341027e-07
3.1731171e-05
1.8274297e-08
2.2721713e-07
3.1551444e-05
1.9203178e-08
2.2069215e-07
3.1377162e-05
2.0127725e-08
2.1449507e-07
3.1208038e-05
2.104865e-08
2.0859678e-07
3.10438e-05
2.1972759e-08
2.0297054e-07
3.0884232e-05
2.2827832e-08
1.9760741e-07
3.0729103e-05
2.3662961e-08
1.924823e-07
3.05782e-05
2.4490057e-08
1.8757379e-07
3.0431331e-05
2.529631e-08
1.8286763e-07
3.0288318e-05
2.6078018e-08
1.7835079e-07
3.0148994e-05
2.6834317e-08
1.7401109e-07
3.0013202e-05
2.7564707e-08
1.6983755e-07
2.9880797e-05
2.8268991e-08
1.6582025e-07
2.975164e-05
2.8947403e-08
1.6195016e-07
2.96256e-05
2.9600754e-08
1.58219e-07
2.9502557e-05
3.0228543e-08
1.5461919e-07
2.9382396e-05
3.082357e-08
1.5114466e-07
2.9265007e-05
3.1393123e-08
1.4778878e-07
2.9150287e-05
3.1939626e-08
1.4454536e-07
2.9038137e-05
3.2461895e-08
1.4140899e-07
2.8928465e-05
3.2960087e-08
1.3837461e-07
2.8821181e-05
3.3434737e-08
1.3543752e-07
2.8716203e-05
3.3886341e-08
1.3259327e-07
2.8613449e-05
3.4315528e-08
1.2983785e-07
2.8512845e-05
3.4722873e-08
1.2716736e-07
2.8414317e-05
3.5108998e-08
1.2457815e-07
2.8317797e-05
3.5474428e-08
1.2206683e-07
2.8223219e-05
3.5819894e-08
1.1963009e-07
2.813052e-05
3.6145955e-08
1.1726494e-07
2.803964e-05
3.6453079e-08
1.149684e-07
2.7950522e-05
3.6741861e-08
1.1273771e-07
2.7863111e-05
3.7012798e-08
1.1057026e-07
2.7777354e-05
3.7266262e-08
1.0846344e-07
2.7693204e-05
3.7502487e-08
1.0641477e-07
2.761061e-05
3.7721592e-08
1.0442176e-07
2.752953e-05
3.7923571e-08
1.0248202e-07
2.7449919e-05
3.8107994e-08
1.0059306e-07
2.7371738e-05
3.8274304e-08
9.8752318e-08
2.7294949e-05
3.8421544e-08
9.6956906e-08
2.7219516e-05
3.8548743e-08
9.520363e-08
2.714541e-05
3.8655121e-08
9.3488628e-08
2.7072603e-05
3.8741125e-08
9.1806954e-08
2.7001079e-05
3.8810288e-08
9.0152301e-08
2.6930832e-05
3.8872124e-08
8.851655e-08
2.6861876e-05
3.8947422e-08
8.6890508e-08
2.679426e-05
3.9073541e-08
8.5269176e-08
2.6728065e-05
3.9306928e-08
8.3675902e-08
2.6663337e-05
3.9708352e-08
8.2271163e-08
2.659956e-05
4.0271991e-08
8.183621e-08
2.6534295e-05
4.069802e-08
8.4555706e-08
3.9620879e-08
1.1507131e-07
0.00010494757
5.6811083e-07
6.5033076e-06
9.8925416e-05
1.0462983e-06
6.6283517e-06
9.3480449e-05
1.3439845e-06
6.1835065e-06
8.8341777e-05
1.4751324e-06
5.9184763e-06
8.3502084e-05
1.4993911e-06
5.6187065e-06
7.9004057e-05
1.4572411e-06
5.2482679e-06
7.4853978e-05
1.3667382e-06
4.8478757e-06
7.1037378e-05
1.2423974e-06
4.4464569e-06
6.7536063e-05
1.0997693e-06
4.0563128e-06
6.4331998e-05
9.5192361e-07
3.683491e-06
6.1407318e-05
8.0805757e-07
3.3320524e-06
5.8744339e-05
6.7422204e-07
3.0046209e-06
5.6325632e-05
5.5404396e-07
2.7024907e-06
5.4133973e-05
4.4916745e-07
2.4259383e-06
5.2152298e-05
3.5972404e-07
2.174536e-06
5.0363747e-05
2.8484512e-07
1.9473718e-06
4.875178e-05
2.2310005e-07
1.7432015e-06
4.7300339e-05
1.7281169e-07
1.5605647e-06
4.5994012e-05
1.3226572e-07
1.3978748e-06
4.4818177e-05
9.9840029e-08
1.2534891e-06
4.3759121e-05
7.4075611e-08
1.1257614e-06
4.2804123e-05
5.3707641e-08
1.0130814e-06
4.1941503e-05
3.7671238e-08
9.1390377e-07
4.1160627e-05
2.5096471e-08
8.267673e-07
4.0451891e-05
1.5294183e-08
7.5030384e-07
3.980679e-05
7.5281732e-09
6.8329173e-07
3.9217543e-05
1.6727448e-09
6.2455198e-07
3.8677513e-05
-3.0330939e-09
5.7313079e-07
3.8180739e-05
-6.6486608e-09
5.2807352e-07
3.7722004e-05
-9.3594818e-09
4.8853454e-07
3.7296777e-05
-1.1371789e-08
4.537893e-07
3.6901112e-05
-1.2818217e-08
4.2319914e-07
3.6531588e-05
-1.3805306e-08
3.9620479e-07
3.6185236e-05
-1.4417495e-08
3.7231876e-07
3.5859491e-05
-1.4721883e-08
3.5111776e-07
3.5552132e-05
-1.4772673e-08
3.3223579e-07
3.5261237e-05
-1.4613923e-08
3.1535728e-07
3.4985143e-05
-1.4282193e-08
3.0021089e-07
3.472241e-05
-1.380769e-08
2.8656375e-07
3.4471787e-05
-1.3215884e-08
2.742163e-07
3.4232185e-05
-1.2528162e-08
2.6299771e-07
3.4002657e-05
-1.1762773e-08
2.5276172e-07
3.3782373e-05
-1.0935222e-08
2.4338336e-07
3.3570606e-05
-1.0058794e-08
2.3475556e-07
3.3366714e-05
-9.1447648e-09
2.2678673e-07
3.3170131e-05
-8.2028107e-09
2.1939832e-07
3.2980356e-05
-7.2412352e-09
2.1252302e-07
3.279694e-05
-6.2668777e-09
2.0610283e-07
3.2619482e-05
-5.2855685e-09
2.0008785e-07
3.2447623e-05
-4.301844e-09
1.9443481e-07
3.228104e-05
-3.319076e-09
1.8910587e-07
3.2119438e-05
-2.3383258e-09
1.8406733e-07
3.1962554e-05
-1.3530433e-09
1.7928647e-07
3.1810075e-05
-2.7633358e-10
1.7472766e-07
3.1661878e-05
5.8583216e-10
1.7043905e-07
3.1517732e-05
1.4355762e-09
1.6637294e-07
3.1377429e-05
2.3038167e-09
1.6248957e-07
3.1240792e-05
3.1586498e-09
1.5877486e-07
3.1107656e-05
3.9969761e-09
1.5521722e-07
3.0977867e-05
4.8171909e-09
1.5180547e-07
3.0851284e-05
5.6179564e-09
1.4852969e-07
3.0727774e-05
6.3990391e-09
1.4538077e-07
3.0607209e-05
7.1609239e-09
1.4235052e-07
3.0489473e-05
7.9059264e-09
1.3943121e-07
3.037445e-05
8.6357344e-09
1.3661574e-07
3.0262049e-05
9.320653e-09
1.3390395e-07
3.0152163e-05
9.9938364e-09
1.3128565e-07
3.0044697e-05
1.0650382e-08
1.2875512e-07
2.9939564e-05
1.1286767e-08
1.2630828e-07
2.983668e-05
1.1903228e-08
1.2394088e-07
2.9735965e-05
1.2500166e-08
1.2164884e-07
2.9637345e-05
1.3077875e-08
1.1942842e-07
2.9540748e-05
1.3636718e-08
1.1727618e-07
2.9446105e-05
1.4176992e-08
1.1518883e-07
2.9353352e-05
1.4699159e-08
1.1316338e-07
2.9262425e-05
1.5203531e-08
1.1119704e-07
2.9173268e-05
1.5690475e-08
1.0928708e-07
2.9085822e-05
1.6160348e-08
1.0743106e-07
2.9000035e-05
1.6613577e-08
1.0562664e-07
2.8915855e-05
1.7050384e-08
1.0387154e-07
2.8833233e-05
1.7471116e-08
1.0216363e-07
2.8752123e-05
1.7875969e-08
1.0050082e-07
2.8672479e-05
1.826511e-08
9.8881116e-08
2.8594259e-05
1.8638587e-08
9.7302478e-08
2.8517424e-05
1.8996272e-08
9.5762954e-08
2.8441934e-05
1.9337826e-08
9.426033e-08
2.8367753e-05
1.9662836e-08
9.2792349e-08
2.8294848e-05
1.9970481e-08
9.1356256e-08
2.8223187e-05
2.0260019e-08
8.9948854e-08
2.8152746e-05
2.0530726e-08
8.8565911e-08
2.8083503e-05
2.0782618e-08
8.7201815e-08
2.8015447e-05
2.1017524e-08
8.5848669e-08
2.7948582e-05
2.1240743e-08
8.4495822e-08
2.7882937e-05
2.1462729e-08
8.3129518e-08
2.7818574e-05
2.1699988e-08
8.1736517e-08
2.7755588e-05
2.1969261e-08
8.032435e-08
2.7694014e-05
2.2266171e-08
7.9016086e-08
2.7633299e-05
2.2506301e-08
7.8480675e-08
2.7571004e-05
2.2393447e-08
8.0599505e-08
2.09931e-08
1.0779946e-07
0.00010489986
2.7443381e-07
6.5049155e-06
9.8802772e-05
5.071664e-07
6.6362236e-06
9.329591e-05
6.5854979e-07
6.1922972e-06
8.8116302e-05
7.2902547e-07
5.9257148e-06
8.3248198e-05