/*--------------------------------*- C++ -*----------------------------------*\
  =========                 |
  \\      /  F ield         | OpenFOAM: The Open Source CFD Toolbox
   \\    /   O peration     | Website:  https://openfoam.org
    \\  /    A nd           | Version:  7
     \\/     M anipulation  |
\*---------------------------------------------------------------------------*/
FoamFile
{
    version     2.0;
    format      ascii;
    class       surfaceScalarField;
    location    "850/water";
    object      phi;
}
// * * * * * * * * * * * * * * * * * * * * * * * * * * * * * * * * * * * * * //

dimensions      [1 0 -1 0 0 0 0];

internalField   nonuniform List<scalar> 
156660
(
9.9057239e-05
6.0010402e-06
6.0528092e-06
8.6847498e-05
6.0555113e-06
6.1542307e-06
7.5687891e-05
5.5111362e-06
5.6484701e-06
6.5441704e-05
5.0404181e-06
5.2057689e-06
5.6267661e-05
4.4956436e-06
4.6783992e-06
4.8318019e-05
3.8797648e-06
4.0698777e-06
4.1624776e-05
3.2524448e-06
3.4407981e-06
3.6124897e-05
2.660462e-06
2.839417e-06
3.1692235e-05
2.1345127e-06
2.2981489e-06
2.8162841e-05
1.6926975e-06
1.8366964e-06
2.5361437e-05
1.3399933e-06
1.4614113e-06
2.3124664e-05
1.0698476e-06
1.1669256e-06
2.1315127e-05
8.687542e-07
9.4078225e-07
1.9825714e-05
7.2110066e-07
7.6831273e-07
1.8577278e-05
6.1248245e-07
6.3595306e-07
1.7513255e-05
5.312522e-07
5.3277149e-07
1.6593744e-05
4.6879724e-07
4.5071348e-07
1.5790433e-05
4.1913717e-07
3.8417387e-07
1.5082784e-05
3.782907e-07
3.2935851e-07
1.4455417e-05
3.4367126e-07
2.8369564e-07
1.3896409e-05
3.1361409e-07
2.4539333e-07
1.339622e-05
2.8704451e-07
2.1314451e-07
1.2947015e-05
2.6326032e-07
1.859451e-07
1.2542237e-05
2.4179367e-07
1.6298464e-07
1.2176318e-05
2.2232208e-07
1.4359692e-07
1.1844484e-05
2.046148e-07
1.272188e-07
1.1542609e-05
1.8849494e-07
1.1337976e-07
1.1267116e-05
1.7381577e-07
1.0167794e-07
1.1014892e-05
1.6046271e-07
9.1760845e-08
1.0783252e-05
1.4833968e-07
8.3300593e-08
1.0569851e-05
1.3734902e-07
7.6052138e-08
1.0372614e-05
1.2738865e-07
6.9848325e-08
1.0189731e-05
1.1836808e-07
6.451481e-08
1.001963e-05
1.1020447e-07
5.9896633e-08
9.8609388e-06
1.0281922e-07
5.587169e-08
9.7124595e-06
9.6137939e-08
5.2341385e-08
9.5731439e-06
9.0091171e-08
4.9224335e-08
9.4420759e-06
8.4614447e-08
4.6453553e-08
9.3184531e-06
7.9648652e-08
4.3974119e-08
9.2015723e-06
7.5139702e-08
4.1741074e-08
9.0908166e-06
7.1038163e-08
3.9717558e-08
8.9856432e-06
6.7301167e-08
3.7872303e-08
8.8855708e-06
6.3894257e-08
3.6178156e-08
8.7901757e-06
6.078011e-08
3.461494e-08
8.6990829e-06
5.7926162e-08
3.3166631e-08
8.6119591e-06
5.5303714e-08
3.1820113e-08
8.5285072e-06
5.2887409e-08
3.0564402e-08
8.4484619e-06
5.0655069e-08
2.9390291e-08
8.3715848e-06
4.8587034e-08
2.8290004e-08
8.2976614e-06
4.6666165e-08
2.7257198e-08
8.2264975e-06
4.4877453e-08
2.6286405e-08
8.1579202e-06
4.3208758e-08
2.5368546e-08
8.0917731e-06
4.1649002e-08
2.4498022e-08
8.0279108e-06
4.0186982e-08
2.3675358e-08
7.9662005e-06
3.8812683e-08
2.2897543e-08
7.9065219e-06
3.7518394e-08
2.2160252e-08
7.8487639e-06
3.6297829e-08
2.1460136e-08
7.7928242e-06
3.5145174e-08
2.0794597e-08
7.7386083e-06
3.4054672e-08
2.016118e-08
7.6860293e-06
3.3021363e-08
1.9557688e-08
7.6350062e-06
3.2040798e-08
1.8982264e-08
7.5854641e-06
3.1109041e-08
1.8433081e-08
7.537333e-06
3.0222598e-08
1.7908485e-08
7.4905478e-06
2.9378229e-08
1.7406993e-08
7.4450476e-06
2.8573016e-08
1.6927201e-08
7.4007756e-06
2.7804254e-08
1.6467799e-08
7.3576783e-06
2.7069606e-08
1.6027648e-08
7.3157057e-06
2.6367071e-08
1.5605632e-08
7.2748103e-06
2.5694643e-08
1.5200691e-08
7.2349479e-06
2.5050537e-08
1.4811835e-08
7.1960766e-06
2.4433084e-08
1.4438187e-08
7.158157e-06
2.3840671e-08
1.4078948e-08
7.1211518e-06
2.3271927e-08
1.3733277e-08
7.0850258e-06
2.2725469e-08
1.3400512e-08
7.0497457e-06
2.2200224e-08
1.3079931e-08
7.0152798e-06
2.1694904e-08
1.2770874e-08
6.9815985e-06
2.1208602e-08
1.2472773e-08
6.9486733e-06
2.0740276e-08
1.2184942e-08
6.9164776e-06
2.0288979e-08
1.1906836e-08
6.8849858e-06
1.9853959e-08
1.1637831e-08
6.8541739e-06
1.9434401e-08
1.1377478e-08
6.8240194e-06
1.9029478e-08
1.1125118e-08
6.7945006e-06
1.8638466e-08
1.0880226e-08
6.7655975e-06
1.8260773e-08
1.0642305e-08
6.7372912e-06
1.7895569e-08
1.0410765e-08
6.709564e-06
1.7542084e-08
1.0185065e-08
6.6823995e-06
1.7199638e-08
9.9648828e-09
6.6557824e-06
1.6867262e-08
9.7498512e-09
6.6296983e-06
1.6544133e-08
9.5399694e-09
6.6041331e-06
1.6229251e-08
9.3359843e-09
6.5790714e-06
1.5921977e-08
9.1396824e-09
6.554494e-06
1.5622345e-08
8.9550749e-09
6.5303708e-06
1.533255e-08
8.7906619e-09
6.5066467e-06
1.5060456e-08
8.6635631e-09
6.4832094e-06
1.4827797e-08
8.6094863e-09
6.4598103e-06
1.4693056e-08
8.7060078e-09
6.4358388e-06
1.4826424e-08
9.1451566e-09
6.4096303e-06
1.5741721e-08
1.0466729e-08
6.3782855e-06
1.8026554e-08
1.3318225e-08
3.2300219e-08
2.7923558e-08
0.00010646494
4.1872386e-06
6.4599816e-06
0.0001002019
5.695418e-06
6.6231353e-06
9.3659588e-05
5.7790389e-06
6.2744098e-06
8.7011589e-05
5.6514782e-06
6.0369387e-06
8.0422927e-05
5.366912e-06
5.7173941e-06
7.4094022e-05
4.9022832e-06
5.3063862e-06
6.8167026e-05
4.3278136e-06
4.8516272e-06
6.2722565e-05
3.717891e-06
4.387032e-06
5.7799049e-05
3.1243144e-06
3.9337145e-06
5.3403345e-05
2.5820689e-06
3.5063329e-06
4.9517402e-05
2.1121062e-06
3.1138299e-06
4.6105482e-05
1.7220197e-06
2.7597474e-06
4.3121558e-05
1.4089355e-06
2.4437429e-06
4.0515558e-05
1.1637552e-06
2.163346e-06
3.8237948e-05
9.7485851e-07
1.9152336e-06
3.6242683e-05
8.3055974e-07
1.6959573e-06
3.4488759e-05
7.2043694e-07
1.5022849e-06
3.2940716e-05
6.3586292e-07
1.3313172e-06
3.1568463e-05
5.7005006e-07
1.1804931e-06
3.0346733e-05
5.1784897e-07
1.0475522e-06
2.9254398e-05
4.7545957e-07
9.304903e-07
2.8273782e-05
4.4013956e-07
8.2752023e-07
2.7390054e-05
4.0994894e-07
7.3704009e-07
2.6590699e-05
3.8353956e-07
6.5760859e-07
2.5865102e-05
3.5998892e-07
5.8793075e-07
2.5204197e-05
3.3867632e-07
5.2684265e-07
2.4600205e-05
3.1918359e-07
4.7330347e-07
2.4046429e-05
3.0120192e-07
4.2639018e-07
2.3537073e-05
2.8455206e-07
3.8526719e-07
2.3067119e-05
2.6911097e-07
3.491824e-07
2.2632208e-05
2.5478165e-07
3.1747787e-07
2.2228528e-05
2.4147382e-07
2.8959535e-07
2.1852744e-05
2.2911072e-07
2.6504126e-07
2.1501947e-05
2.1762893e-07
2.4337257e-07
2.1173591e-05
2.0696954e-07
2.2420573e-07
2.0865445e-05
1.9707569e-07
2.0720866e-07
2.0575549e-05
1.8789252e-07
1.9209395e-07
2.0302183e-05
1.7936721e-07
1.7861342e-07
2.0043829e-05
1.7144907e-07
1.6655323e-07
1.979915e-05
1.6408984e-07
1.5572944e-07
1.956696e-05
1.572438e-07
1.4598405e-07
1.934621e-05
1.5086895e-07
1.3718218e-07
1.9135969e-05
1.4492655e-07
1.2920883e-07
1.8935407e-05
1.3937904e-07
1.2196309e-07
1.8743783e-05
1.3419229e-07
1.153576e-07
1.8560435e-05
1.2933508e-07
1.0931726e-07
1.8384766e-05
1.2477907e-07
1.0377716e-07
1.8216241e-05
1.2049849e-07
9.8681282e-08
1.8054377e-05
1.1647009e-07
9.39813e-08
1.7898734e-05
1.1267291e-07
8.9635402e-08
1.7748917e-05
1.090882e-07
8.5606986e-08
1.7604563e-05
1.0570008e-07
8.186242e-08
1.7465345e-05
1.024934e-07
7.8373274e-08
1.7330962e-05
9.9452988e-08
7.5116997e-08
1.7201138e-05
9.6564418e-08
7.2072745e-08
1.7075619e-05
9.3816676e-08
6.922115e-08
1.695417e-05
9.1201126e-08
6.6545096e-08
1.6836577e-05
8.8709154e-08
6.4029521e-08
1.6722638e-05
8.6331988e-08
6.1661055e-08
1.661217e-05
8.4061751e-08
5.94277e-08
1.6505001e-05
8.1891522e-08
5.7318816e-08
1.640097e-05
7.9814912e-08
5.5324858e-08
1.6299929e-05
7.7826114e-08
5.343714e-08
1.620174e-05
7.5919833e-08
5.1647947e-08
1.6106272e-05
7.4091012e-08
4.9950142e-08
1.6013404e-05
7.2334977e-08
4.833735e-08
1.5923022e-05
7.0647742e-08
4.680387e-08
1.5835019e-05
6.9025737e-08
4.534426e-08
1.5749294e-05
6.7465529e-08
4.3953718e-08
1.5665753e-05
6.5963767e-08
4.26277e-08
1.5584307e-05
6.4517365e-08
4.136216e-08
1.5504871e-05
6.3123412e-08
4.0153351e-08
1.5427366e-05
6.1779294e-08
3.8997806e-08
1.5351716e-05
6.0482511e-08
3.789228e-08
1.5277852e-05
5.9230785e-08
3.6833838e-08
1.5205705e-05
5.8021973e-08
3.5819738e-08
1.5135212e-05
5.685405e-08
3.4847378e-08
1.5066313e-05
5.5725019e-08
3.3914367e-08
1.499895e-05
5.4633142e-08
3.3018411e-08
1.493307e-05
5.3576723e-08
3.2157446e-08
1.4868621e-05
5.2554194e-08
3.1329445e-08
1.4805554e-05
5.156395e-08
3.0532449e-08
1.4743823e-05
5.0604484e-08
2.9764701e-08
1.4683386e-05
4.9674284e-08
2.9024376e-08
1.4624199e-05
4.8771798e-08
2.8309892e-08
1.4566226e-05
4.7895475e-08
2.7619557e-08
1.4509431e-05
4.7043495e-08
2.6951995e-08
1.4453778e-05
4.6214087e-08
2.6305786e-08
1.4399237e-05
4.5405366e-08
2.5679888e-08
1.4345777e-05
4.4615711e-08
2.5073743e-08
1.4293367e-05
4.3844231e-08
2.4487696e-08
1.4241972e-05
4.3092854e-08
2.3923743e-08
1.4191548e-05
4.2369923e-08
2.3387162e-08
1.4142019e-05
4.1699282e-08
2.2889617e-08
1.4093249e-05
4.1141598e-08
2.2456629e-08
1.4044951e-05
4.0844624e-08
2.2146564e-08
1.3996485e-05
4.1169183e-08
2.2123029e-08
1.3946229e-05
4.3012306e-08
2.2985382e-08
1.389015e-05
4.854024e-08
2.5565805e-08
6.3281562e-08
5.0000845e-08
0.00010603565
2.7876425e-06
6.4750379e-06
0.00010074799
4.4145413e-06
6.5685293e-06
9.5493515e-05
4.8594028e-06
6.1741158e-06
9.0256432e-05
4.930369e-06
5.9581921e-06
8.5101366e-05
4.8311767e-06
5.6908012e-06
8.0102875e-05
4.5561761e-06
5.3445981e-06
7.5322251e-05
4.1469521e-06
4.9614853e-06
7.0803266e-05
3.6678925e-06
4.5689837e-06
6.6576264e-05
3.1701903e-06
4.1811255e-06
6.2660725e-05
2.6900109e-06
3.8075976e-06
5.9065443e-05
2.2519318e-06
3.4554566e-06
5.5788936e-05
1.8697304e-06
3.1287958e-06
5.2820978e-05
1.5477473e-06
2.8291458e-06
5.014479e-05
1.2836302e-06
2.5563139e-06
4.7739304e-05
1.07123e-06
2.3091141e-06
4.5581183e-05
9.0281504e-07
2.0858661e-06
4.3646423e-05
7.7048781e-07
1.884709e-06
4.1911533e-05
6.6697375e-07
1.7037793e-06
4.0354306e-05
5.8598197e-07
1.541295e-06
3.8954268e-05
5.2230226e-07
1.3955849e-06
3.769288e-05
4.7175605e-07
1.265091e-06
3.6553576e-05
4.3107985e-07
1.1483634e-06
3.552169e-05
3.9778207e-07
1.0440533e-06
3.4584322e-05
3.6999882e-07
9.5090831e-07
3.3730181e-05
3.4635983e-07
8.677702e-07
3.2949411e-05
3.2587759e-07
7.9356872e-07
3.2233419e-05
3.0784048e-07
7.2733488e-07
3.1574711e-05
2.9172984e-07
6.6818105e-07
3.0966769e-05
2.7719267e-07
6.153013e-07
3.0403928e-05
2.6398101e-07
5.6797022e-07
2.9881258e-05
2.5190847e-07
5.2554316e-07
2.9394455e-05
2.4082711e-07
4.8745e-07
2.8939761e-05
2.3062156e-07
4.531833e-07
2.8513895e-05
2.2120153e-07
4.2229385e-07
2.8113985e-05
2.1249194e-07
3.9438672e-07
2.7737518e-05
2.0442795e-07
3.691149e-07
2.7382285e-05
1.9695191e-07
3.461738e-07
2.7046344e-05
1.9001176e-07
3.2529678e-07
2.6727982e-05
1.8355994e-07
3.0625046e-07
2.6425689e-05
1.7755272e-07
2.8883085e-07
2.6138123e-05
1.7195003e-07
2.7285986e-07
2.5864095e-05
1.6671515e-07
2.5818187e-07
2.5602546e-05
1.6181455e-07
2.4466092e-07
2.535253e-05
1.572171e-07
2.3217764e-07
2.5113201e-05
1.5289443e-07
2.2062723e-07
2.4883797e-05
1.4882095e-07
2.0991773e-07
2.4663634e-05
1.4497366e-07
1.9996813e-07
2.4452094e-05
1.4133182e-07
1.9070705e-07
2.4248615e-05
1.3787694e-07
1.8207151e-07
2.405269e-05
1.3459265e-07
1.7400569e-07
2.3863854e-05
1.3146457e-07
1.664599e-07
2.3681684e-05
1.2848055e-07
1.5938922e-07
2.3505794e-05
1.2562919e-07
1.527541e-07
2.3335829e-05
1.2289868e-07
1.4651969e-07
2.3171462e-05
1.2027635e-07
1.4065458e-07
2.3012394e-05
1.1775479e-07
1.3513021e-07
2.2858345e-05
1.1532971e-07
1.2992042e-07
2.2709057e-05
1.1299536e-07
1.2500172e-07
2.2564291e-05
1.1074517e-07
1.2035289e-07
2.2423824e-05
1.0857348e-07
1.159546e-07
2.2287451e-05
1.0647549e-07
1.1178923e-07
2.2154978e-05
1.0444703e-07
1.0784078e-07
2.2026226e-05
1.0248419e-07
1.0409458e-07
2.1901025e-05
1.0058351e-07
1.0053719e-07
2.1779218e-05
9.8741535e-08
9.7156166e-08
2.1660658e-05
9.695488e-08
9.3940257e-08
2.1545205e-05
9.522125e-08
9.0879025e-08
2.1432729e-05
9.35388e-08
8.7962805e-08
2.1323107e-05
9.1905308e-08
8.5182599e-08
2.1216222e-05
9.0318489e-08
8.2530159e-08
2.1111965e-05
8.8776403e-08
7.9997888e-08
2.1010233e-05
8.7277107e-08
7.7578641e-08
2.0910927e-05
8.5818943e-08
7.5265879e-08
2.0813956e-05
8.4400301e-08
7.3053427e-08
2.0719232e-05
8.3019647e-08
7.0935648e-08
2.0626671e-05
8.167562e-08
6.8907209e-08
2.0536195e-05
8.0366788e-08
6.6963138e-08
2.0447729e-05
7.9091951e-08
6.5098765e-08
2.0361203e-05
7.7849812e-08
6.3309741e-08
2.0276548e-05
7.6639229e-08
6.159204e-08
2.0193702e-05
7.5458979e-08
5.9941744e-08
2.0112602e-05
7.4307948e-08
5.8355231e-08
2.0033193e-05
7.3184928e-08
5.6829069e-08
1.9955419e-05
7.2088588e-08
5.5359969e-08
1.9879228e-05
7.1017645e-08
5.3944854e-08
1.9804572e-05
6.9970424e-08
5.2580709e-08
1.9731406e-05
6.8945271e-08
5.1264796e-08
1.9659685e-05
6.7940092e-08
4.9994377e-08
1.9589371e-05
6.6953025e-08
4.8767055e-08
1.9520423e-05
6.5982369e-08
4.7580508e-08
1.9452807e-05
6.5028023e-08
4.6433081e-08
1.9386482e-05
6.4094119e-08
4.532375e-08
1.9321404e-05
6.3194693e-08
4.4253078e-08
1.9257511e-05
6.2366353e-08
4.3225222e-08
1.9194705e-05
6.1695156e-08
4.2253139e-08
1.9132798e-05
6.1374072e-08
4.1377388e-08
1.9071394e-05
6.1822405e-08
4.0750673e-08
1.9009424e-05
6.3924713e-08
4.1057596e-08
1.8944661e-05
6.9304688e-08
4.3998847e-08
7.9170889e-08
7.4661553e-08
0.0001054937
1.9169871e-06
6.4880406e-06
0.00010005365
3.2729596e-06
6.5816335e-06
9.4926077e-05
3.8288996e-06
6.1580776e-06
8.9946373e-05
3.9838109e-06
5.9262629e-06
8.5163276e-05
3.9595077e-06
5.6547657e-06
8.0619137e-05
3.7899369e-06
5.3103784e-06
7.6329462e-05
3.5015547e-06
4.9350725e-06
7.230016e-05
3.1412013e-06
4.5559928e-06
6.8534206e-05
2.7514802e-06
4.184664e-06
6.5032983e-05
2.3633493e-06
3.8278852e-06
6.1795789e-05
1.9984144e-06
3.490711e-06
5.8818843e-05
1.670376e-06
3.176301e-06
5.6094718e-05
1.3858295e-06
2.886043e-06
5.3612488e-05
1.1457945e-06
2.6200649e-06
5.1358373e-05
9.4764121e-07
2.3777043e-06
4.9316593e-05
7.8676785e-07
2.1578272e-06
4.7470246e-05
6.5779547e-07
1.9590391e-06
4.5802069e-05
5.5532543e-07
1.7798252e-06
4.4295042e-05
4.7437119e-07
1.6186378e-06
4.293283e-05
4.1056667e-07
1.473948e-06
4.1700078e-05
3.6023235e-07
1.3442759e-06
4.0582591e-05
3.2035741e-07
1.2282094e-06
3.956742e-05
2.8853734e-07
1.1244154e-06
3.8642881e-05
2.6289063e-07
1.0316467e-06
3.7798527e-05
2.4196986e-07
9.4874401e-07
3.7025076e-05
2.2467703e-07
8.7465171e-07
3.6314324e-05
2.10189e-07
8.0840409e-07
3.5659057e-05
1.9788606e-07
7.4911043e-07
3.5052961e-05
1.8731583e-07
6.9597283e-07
3.4490519e-05
1.7814873e-07
6.482738e-07
3.3966922e-05
1.7013171e-07
6.053744e-07
3.3477973e-05
1.6306725e-07
5.6670867e-07
3.3020016e-05
1.5680298e-07
5.3177544e-07
3.2589865e-05
1.5122052e-07
5.0013243e-07
3.218474e-05
1.4622562e-07
4.7139135e-07
3.1802215e-05
1.4174074e-07
4.4521231e-07
3.1440168e-05
1.3770093e-07
4.2129809e-07
3.1096739e-05
1.3405094e-07
3.9938922e-07
3.0770297e-05
1.3074294e-07
3.7925952e-07
3.0459402e-05
1.2773518e-07
3.6071193e-07
3.0162787e-05
1.2499092e-07
3.4357479e-07
2.9879325e-05
1.2247786e-07
3.276985e-07
2.960802e-05
1.2016734e-07
3.1295272e-07
2.934798e-05
1.1803383e-07
2.9922354e-07
2.9098408e-05
1.1605463e-07
2.8641138e-07
2.885859e-05
1.1420983e-07
2.7442907e-07
2.8627882e-05
1.1248191e-07
2.6319998e-07
2.8405701e-05
1.1085556e-07
2.5265685e-07
2.819152e-05
1.0931754e-07
2.4274021e-07
2.7984859e-05
1.078565e-07
2.3339758e-07
2.7785279e-05
1.0646279e-07
2.2458213e-07
2.7592378e-05
1.0512873e-07
2.1625214e-07
2.740579e-05
1.0384737e-07
2.0837032e-07
2.7225174e-05
1.0261118e-07
2.0090361e-07
2.705022e-05
1.0140746e-07
1.9382255e-07
2.6880641e-05
1.0023385e-07
1.8710039e-07
2.6716166e-05
9.9092359e-08
1.8071223e-07
2.6556546e-05
9.7979995e-08
1.7463555e-07
2.6401548e-05
9.68925e-08
1.6885013e-07
2.6250957e-05
9.5827089e-08
1.6333741e-07
2.610457e-05
9.4781684e-08
1.5808046e-07
2.5962199e-05
9.3754737e-08
1.5306361e-07
2.5823666e-05
9.2744896e-08
1.482726e-07
2.5688804e-05
9.1751019e-08
1.4369415e-07
2.5557458e-05
9.0771758e-08
1.3931598e-07
2.5429481e-05
8.9805185e-08
1.3512691e-07
2.5304734e-05
8.8851477e-08
1.3111645e-07
2.5183087e-05
8.7911213e-08
1.2727468e-07
2.5064416e-05
8.698389e-08
1.2359242e-07
2.4948604e-05
8.606887e-08
1.2006118e-07
2.4835542e-05
8.5165771e-08
1.1667301e-07
2.4725124e-05
8.4274336e-08
1.1342048e-07
2.4617252e-05
8.3394246e-08
1.1029656e-07
2.4511832e-05
8.2525435e-08
1.0729478e-07
2.4408775e-05
8.1667699e-08
1.04409e-07
2.4307997e-05
8.0820958e-08
1.0163345e-07
2.4209416e-05
7.998501e-08
9.896268e-08
2.4112956e-05
7.9159736e-08
9.6391574e-08
2.4018546e-05
7.8345022e-08
9.3915295e-08
2.3926115e-05
7.754069e-08
9.1529314e-08
2.3835598e-05
7.6746528e-08
8.92293e-08
2.3746933e-05
7.5962306e-08
8.7011023e-08
2.366006e-05
7.5187626e-08
8.4870719e-08
2.3574922e-05
7.442197e-08
8.2804536e-08
2.3491466e-05
7.3664606e-08
8.0808892e-08
2.3409641e-05
7.2914596e-08
7.888036e-08
2.33294e-05
7.2170687e-08
7.7015486e-08
2.3250698e-05
7.1431301e-08
7.5211011e-08
2.3173493e-05
7.0694894e-08
7.3463638e-08
2.3097745e-05
6.9960228e-08
7.1770072e-08
2.3023418e-05
6.9227992e-08
7.0127017e-08
2.2950477e-05
6.8503515e-08
6.8531181e-08
2.2878889e-05
6.7802912e-08
6.6979715e-08
2.2808619e-05
6.7165058e-08
6.5471569e-08
2.2739625e-05
6.6675266e-08
6.4013352e-08
2.267185e-05
6.6507075e-08
6.2642305e-08
2.2605149e-05
6.6990727e-08
6.1532327e-08
2.2538888e-05
6.8686001e-08
6.1499889e-08
2.2471121e-05
7.2226931e-08
6.4845112e-08
7.6722804e-08
9.8461316e-08
0.0001051979
1.3340885e-06
6.4961222e-06
9.9496561e-05
2.3731022e-06
6.6011947e-06
9.4262459e-05
2.9019223e-06
6.1610799e-06
8.9251186e-05
3.0856642e-06
5.9094196e-06
8.4493497e-05
3.0947347e-06
5.6224614e-06
8.0033635e-05
2.9846657e-06
5.2651341e-06
7.5876907e-05
2.7790155e-06
4.8792667e-06
7.2014635e-05
2.5106843e-06
4.4927895e-06
6.8436293e-05
2.2128728e-06
4.1169489e-06
6.5131387e-05
1.9107259e-06
3.7575291e-06
6.208941e-05
1.621732e-06
3.4186596e-06
5.9299432e-05
1.3573878e-06
3.1029661e-06
5.6749589e-05
1.1240344e-06
2.8116386e-06
5.4426788e-05
9.2377949e-07
2.5448158e-06
5.2316754e-05
7.5572802e-07
2.3019466e-06
5.0404313e-05
6.1717856e-07
2.0820302e-06
4.8673788e-05
5.0454353e-07
1.8837772e-06
4.7109414e-05
4.1397179e-07
1.7057274e-06
4.5695713e-05
3.4173649e-07
1.5463363e-06
4.4417792e-05
2.8445147e-07
1.4040359e-06
4.3261575e-05
2.3917113e-07
1.2772781e-06
4.2213952e-05
2.0341504e-07
1.1645652e-06
4.1262871e-05
1.7514745e-07
1.0644718e-06
4.039737e-05
1.5273234e-07
9.7565899e-07
3.9607583e-05
1.3487531e-07
8.9688145e-07
3.8884688e-05
1.205557e-07
8.2701639e-07
3.8220848e-05
1.0901093e-07
7.6501855e-07
3.7609155e-05
9.9633875e-08
7.0994489e-07
3.7043542e-05
9.1977451e-08
6.6095089e-07
3.6518702e-05
8.5705823e-08
6.1728289e-07
3.6030009e-05
8.0552366e-08
5.7827307e-07
3.5573433e-05
7.6308298e-08
5.4333416e-07
3.5145475e-05
7.2811285e-08
5.1195031e-07
3.4743091e-05
6.993414e-08
4.8367025e-07
3.4363641e-05
6.7575458e-08
4.5810066e-07
3.4004828e-05
6.5652869e-08
4.3489998e-07
3.3664659e-05
6.4098561e-08
4.137721e-07
3.3341393e-05
6.2855886e-08
3.9446095e-07
3.3033513e-05
6.1877032e-08
3.7674529e-07
3.2739693e-05
6.1121109e-08
3.6043422e-07
3.2458768e-05
6.055307e-08
3.453633e-07
3.2189712e-05
6.0142681e-08
3.3139057e-07
3.1931622e-05
5.986369e-08
3.1839376e-07
3.1683696e-05
5.9693138e-08
3.0626732e-07
3.1445219e-05
5.9611216e-08
2.9492011e-07
3.1215555e-05
5.9600629e-08
2.8427319e-07
3.0994132e-05
5.9646525e-08
2.7425809e-07
3.0780436e-05
5.9736154e-08
2.6481539e-07
3.0574002e-05
5.9858672e-08
2.5589333e-07
3.0374407e-05
6.0004921e-08
2.4744661e-07
3.0181267e-05
6.016763e-08
2.3943549e-07
2.9994229e-05
6.0341258e-08
2.3182487e-07
2.9812971e-05
6.0521819e-08
2.2458377e-07
2.9637193e-05
6.0704488e-08
2.1768455e-07
2.9466629e-05
6.0867278e-08
2.1110455e-07
2.9301024e-05
6.1016997e-08
2.0482178e-07
2.914014e-05
6.1160874e-08
1.9881568e-07
2.8983756e-05
6.1294937e-08
1.9306839e-07
2.8831669e-05
6.1415424e-08
1.8756389e-07
2.8683688e-05
6.1520955e-08
1.8228764e-07
2.8539633e-05
6.1610568e-08
1.7722636e-07
2.8399336e-05
6.1683777e-08
1.7236783e-07
2.8262639e-05
6.1740493e-08
1.677009e-07
2.8129394e-05
6.1780703e-08
1.6321518e-07
2.7999461e-05
6.1803888e-08
1.5890119e-07
2.7872709e-05
6.1807379e-08
1.5475036e-07
2.7749012e-05
6.1793575e-08
1.5075443e-07
2.7628253e-05
6.176481e-08
1.4690557e-07
2.7510319e-05
6.1720996e-08
1.4319662e-07
2.7395105e-05
6.1662109e-08
1.3962084e-07
2.728251e-05
6.1588622e-08
1.3617201e-07
2.7172439e-05
6.1501027e-08
1.3284421e-07
2.7064802e-05
6.1399941e-08
1.2963189e-07
2.6959511e-05
6.1285937e-08
1.2652993e-07
2.6856486e-05
6.1159528e-08
1.2353326e-07
2.6755649e-05
6.1021303e-08
1.206373e-07
2.6656924e-05
6.0871847e-08
1.1783766e-07
2.6560242e-05
6.0711718e-08
1.1513017e-07
2.6465535e-05
6.0541351e-08
1.1251077e-07
2.6372738e-05
6.036131e-08
1.0997577e-07
2.6281791e-05
6.0171967e-08
1.0752161e-07
2.6192636e-05
5.9973537e-08
1.0514471e-07
2.6105215e-05
5.9766281e-08
1.0284184e-07
2.6019477e-05
5.9550249e-08
1.0060972e-07
2.5935371e-05
5.9325137e-08
9.8445266e-08
2.585285e-05
5.909047e-08
9.6345384e-08
2.5771868e-05
5.8845484e-08
9.4306931e-08
2.5692384e-05
5.8589024e-08
9.2326745e-08
2.5614357e-05
5.8319803e-08
9.0401445e-08
2.5537753e-05
5.8037089e-08
8.8527322e-08
2.5462539e-05
5.7741625e-08
8.670021e-08
2.5388689e-05
5.7438399e-08
8.4915203e-08
2.5316184e-05
5.7141457e-08
8.3166636e-08
2.5245017e-05
5.6882598e-08
8.1449641e-08
2.51752e-05
5.6726017e-08
7.9765803e-08
2.510677e-05
5.6787905e-08
7.8149192e-08
2.5039729e-05
5.7251587e-08
7.6780989e-08
2.4973573e-05
5.8330945e-08
7.6510248e-08
2.4906079e-05
5.998945e-08
7.9732159e-08
6.0714996e-08
1.1287824e-07
0.00010503672
9.0789373e-07
6.5005614e-06
9.9140653e-05
1.6524914e-06
6.6166802e-06
9.3788329e-05
2.0825241e-06
6.1717217e-06
8.8708526e-05
2.2549373e-06
5.91053e-06
8.3909682e-05
2.278404e-06
5.6151748e-06
7.9437109e-05
2.2074821e-06
5.2497564e-06
7.5296201e-05
2.0645348e-06
4.8553893e-06
7.1474034e-05
1.8722543e-06
4.4605969e-06
6.7955013e-05
1.6547667e-06
4.0771269e-06
6.4723621e-05
1.4313505e-06
3.7107669e-06
6.1764423e-05
1.2154297e-06
3.3655007e-06
5.9062056e-05
1.0158641e-06
3.0438912e-06
5.6601108e-05
8.3782743e-07
2.7471548e-06
5.4365944e-05
6.8344648e-07
2.475497e-06
5.2340648e-05
5.5258526e-07
2.2284383e-06
5.0509125e-05
4.436655e-07
2.0050361e-06
4.8855299e-05
3.5433456e-07
1.8040352e-06
4.7363353e-05
2.819359e-07
1.6239821e-06
4.6017963e-05
2.2381347e-07
1.4633127e-06
4.4804502e-05
1.774938e-07
1.3204181e-06
4.3709199e-05
1.4078091e-07
1.1936935e-06
4.2719248e-05
1.1179156e-07
1.081575e-06
4.1822875e-05
8.8954536e-08
9.8256586e-07
4.1009364e-05
7.0988007e-08
8.9525473e-07
4.0269054e-05
5.6861837e-08
8.1832381e-07
3.9593306e-05
4.5719138e-08
7.5058474e-07
3.8974405e-05
3.6977874e-08
6.9093437e-07
3.8405585e-05
3.0067377e-08
6.3838632e-07
3.7880869e-05
2.4650852e-08
5.920424e-07
3.7395029e-05
2.0439997e-08
5.5110606e-07
3.6943514e-05
1.7190296e-08
5.1487716e-07
3.6522366e-05
1.4716754e-08
4.8273958e-07
3.6128148e-05
1.2874768e-08
4.5415391e-07
3.5757883e-05
1.1549938e-08
4.2864945e-07
3.5408991e-05
1.0650767e-08
4.0581703e-07
3.5079238e-05
1.0103623e-08
3.8530227e-07
3.4766689e-05
9.848249e-09
3.6679877e-07
3.4469668e-05
9.8351049e-09
3.5004233e-07
3.4186716e-05
1.0022909e-08
3.3480549e-07
3.3916567e-05
1.037704e-08
3.2089286e-07
3.3658116e-05
1.0868088e-08
3.0813661e-07
3.3410395e-05
1.1470986e-08
2.9639286e-07
3.3172556e-05
1.2164245e-08
2.8553826e-07
3.2943853e-05
1.2929297e-08
2.754672e-07
3.2723625e-05
1.3750163e-08
2.6608892e-07
3.2511286e-05
1.4613059e-08
2.5732576e-07
3.2306316e-05
1.5506235e-08
2.4911069e-07
3.2108246e-05
1.6419601e-08
2.4138619e-07
3.1916658e-05
1.7344656e-08
2.3410272e-07
3.1731171e-05
1.8274337e-08
2.2721715e-07
3.1551444e-05
1.9203149e-08
2.2069216e-07
3.1377162e-05
2.0127723e-08
2.1449508e-07
3.1208038e-05
2.1048652e-08
2.085968e-07
3.10438e-05
2.1972784e-08
2.0297053e-07
3.0884232e-05
2.2827858e-08
1.9760736e-07
3.0729103e-05
2.366297e-08
1.9248226e-07
3.05782e-05
2.449003e-08
1.8757381e-07
3.0431331e-05
2.5296275e-08
1.8286763e-07
3.0288318e-05
2.6077981e-08
1.7835077e-07
3.0148994e-05
2.6834283e-08
1.7401108e-07
3.0013202e-05
2.7564671e-08
1.6983754e-07
2.9880797e-05
2.8268962e-08
1.6582024e-07
2.975164e-05
2.894741e-08
1.6195012e-07
2.96256e-05
2.9600748e-08
1.5821897e-07
2.9502557e-05
3.0228568e-08
1.5461918e-07
2.9382396e-05
3.0823577e-08
1.5114462e-07
2.9265007e-05
3.1393126e-08
1.4778876e-07
2.9150287e-05
3.1939583e-08
1.4454537e-07
2.9038137e-05
3.246187e-08
1.41409e-07
2.8928465e-05
3.2960065e-08
1.3837461e-07
2.8821181e-05
3.3434735e-08
1.3543749e-07
2.8716203e-05
3.3886347e-08
1.325933e-07
2.8613449e-05
3.4315539e-08
1.2983785e-07
2.8512845e-05
3.4722857e-08
1.2716737e-07
2.8414317e-05
3.5108963e-08
1.2457816e-07
2.8317797e-05
3.5474447e-08
1.220668e-07
2.8223219e-05
3.5819909e-08
1.1963008e-07
2.813052e-05
3.6145904e-08
1.1726491e-07
2.803964e-05
3.6453054e-08
1.1496842e-07
2.7950522e-05
3.6741876e-08
1.1273772e-07
2.7863111e-05
3.701281e-08
1.1057028e-07
2.7777354e-05
3.7266208e-08
1.0846342e-07
2.7693204e-05
3.7502458e-08
1.0641473e-07
2.761061e-05
3.7721557e-08
1.0442174e-07
2.752953e-05
3.7923565e-08
1.0248201e-07
2.744992e-05
3.810798e-08
1.0059307e-07
2.7371738e-05
3.8274252e-08
9.8752302e-08
2.7294949e-05
3.8421523e-08
9.6956917e-08
2.7219516e-05
3.8548745e-08
9.5203652e-08
2.714541e-05
3.865513e-08
9.3488591e-08
2.7072603e-05
3.8741153e-08
9.180696e-08
2.7001079e-05
3.8810291e-08
9.0152337e-08
2.6930832e-05
3.8872136e-08
8.8516552e-08
2.6861877e-05
3.8947434e-08
8.6890533e-08
2.679426e-05
3.9073572e-08
8.5269175e-08
2.6728065e-05
3.9306987e-08
8.367595e-08
2.6663337e-05
3.9708347e-08
8.2271158e-08
2.659956e-05
4.0271993e-08
8.1836177e-08
2.6534295e-05
4.0698032e-08
8.4555745e-08
3.962082e-08
1.1507131e-07
0.00010494757
5.6811081e-07
6.5033076e-06
9.8925416e-05
1.0462983e-06
6.6283517e-06
9.3480449e-05
1.3439844e-06
6.1835066e-06
8.8341777e-05
1.4751324e-06
5.9184763e-06
8.3502084e-05
1.4993911e-06
5.6187065e-06
7.9004057e-05
1.4572411e-06
5.2482679e-06
7.4853978e-05
1.3667382e-06
4.8478757e-06
7.1037378e-05
1.2423974e-06
4.4464569e-06
6.7536063e-05
1.0997693e-06
4.0563127e-06
6.4331998e-05
9.5192359e-07
3.683491e-06
6.1407318e-05
8.0805758e-07
3.3320524e-06
5.8744339e-05
6.7422202e-07
3.0046209e-06
5.6325632e-05
5.5404398e-07
2.7024907e-06
5.4133973e-05
4.4916749e-07
2.4259383e-06
5.2152298e-05
3.5972398e-07
2.174536e-06
5.0363747e-05
2.8484512e-07
1.9473717e-06
4.875178e-05
2.2310003e-07
1.7432015e-06
4.7300339e-05
1.7281166e-07
1.5605647e-06
4.5994012e-05
1.3226572e-07
1.3978748e-06
4.4818177e-05
9.9840035e-08
1.2534891e-06
4.3759121e-05
7.4075602e-08
1.1257614e-06
4.2804123e-05
5.3707665e-08
1.0130814e-06
4.1941503e-05
3.7671279e-08
9.1390376e-07
4.1160627e-05
2.5096497e-08
8.2676733e-07
4.0451891e-05
1.5294188e-08
7.5030387e-07
3.980679e-05
7.5281927e-09
6.832917e-07
3.9217543e-05
1.6727498e-09
6.2455198e-07
3.8677513e-05
-3.0331056e-09
5.7313081e-07
3.8180739e-05
-6.6486624e-09
5.2807355e-07
3.7722004e-05
-9.3594985e-09
4.8853449e-07
3.7296777e-05
-1.1371819e-08
4.5378928e-07
3.6901113e-05
-1.2818229e-08
4.2319913e-07
3.6531588e-05
-1.3805297e-08
3.9620479e-07
3.6185236e-05
-1.4417485e-08
3.7231877e-07
3.5859491e-05
-1.472189e-08
3.5111775e-07
3.5552132e-05
-1.4772648e-08
3.3223577e-07
3.5261237e-05
-1.4613924e-08
3.1535727e-07
3.4985143e-05
-1.4282179e-08
3.0021092e-07
3.472241e-05
-1.3807706e-08
2.8656377e-07
3.4471787e-05
-1.3215887e-08
2.7421632e-07
3.4232185e-05
-1.2528163e-08
2.6299772e-07
3.4002657e-05
-1.1762815e-08
2.5276173e-07
3.3782373e-05
-1.0935257e-08
2.4338336e-07
3.3570606e-05
-1.0058807e-08
2.3475559e-07
3.3366714e-05
-9.1447602e-09
2.2678672e-07
3.3170132e-05
-8.2028418e-09
2.1939836e-07
3.2980356e-05
-7.2412582e-09
2.1252301e-07
3.279694e-05
-6.2668808e-09
2.0610278e-07
3.2619482e-05
-5.2855267e-09
2.0008784e-07
3.2447623e-05
-4.3018107e-09
1.944348e-07
3.228104e-05
-3.3190515e-09
1.8910586e-07
3.2119438e-05
-2.3383366e-09
1.8406732e-07
3.1962554e-05
-1.3530424e-09
1.7928646e-07
3.1810075e-05
-2.7632451e-10
1.7472763e-07
3.1661878e-05
5.8582264e-10
1.7043906e-07
3.1517732e-05
1.43559e-09
1.6637295e-07
3.1377429e-05
2.3038182e-09
1.6248959e-07
3.1240792e-05
3.1586286e-09
1.5877487e-07
3.1107656e-05
3.9969948e-09
1.552172e-07
3.0977867e-05
4.8171634e-09
1.5180549e-07
3.0851284e-05
5.6179649e-09
1.4852972e-07
3.0727774e-05
6.3990243e-09
1.4538076e-07
3.0607209e-05
7.1609162e-09
1.4235054e-07
3.0489473e-05
7.9059507e-09
1.3943123e-07
3.037445e-05
8.6357598e-09
1.3661579e-07
3.0262049e-05
9.320661e-09
1.3390395e-07
3.0152163e-05
9.9937901e-09
1.3128565e-07
3.0044697e-05
1.0650377e-08
1.2875513e-07
2.9939564e-05
1.1286734e-08
1.2630829e-07
2.983668e-05
1.1903219e-08
1.2394088e-07
2.9735965e-05
1.2500166e-08
1.2164883e-07
2.9637345e-05
1.3077884e-08
1.1942843e-07
2.9540748e-05
1.3636701e-08
1.1727617e-07
2.9446105e-05
1.4177012e-08
1.151888e-07
2.9353352e-05
1.4699134e-08
1.1316337e-07
2.9262425e-05
1.5203551e-08
1.1119703e-07
2.9173268e-05
1.5690463e-08
1.0928706e-07
2.9085822e-05
1.6160368e-08
1.0743107e-07
2.9000035e-05
1.661358e-08
1.0562663e-07
2.8915855e-05
1.7050395e-08
1.0387153e-07
2.8833233e-05
1.7471093e-08
1.0216361e-07
2.8752123e-05
1.7875952e-08
1.0050079e-07
2.8672479e-05
1.8265059e-08
9.8881087e-08
2.8594259e-05
1.863855e-08
9.730248e-08
2.8517424e-05
1.8996227e-08
9.5762961e-08
2.8441934e-05
1.9337794e-08
9.4260348e-08
2.8367753e-05
1.9662805e-08
9.2792358e-08
2.8294848e-05
1.9970452e-08
9.1356277e-08
2.8223187e-05
2.0260004e-08
8.9948846e-08
2.8152746e-05
2.053067e-08
8.8565894e-08
2.8083503e-05
2.0782608e-08
8.7201772e-08
2.8015447e-05
2.1017519e-08
8.5848657e-08
2.7948582e-05
2.1240731e-08
8.4495832e-08
2.7882937e-05
2.1462741e-08
8.3129535e-08
2.7818575e-05
2.1700004e-08
8.173651e-08
2.7755588e-05
2.1969315e-08
8.0324354e-08
2.7694014e-05
2.2266194e-08
7.9016079e-08
2.7633299e-05
2.2506308e-08
7.8480663e-08
2.7571004e-05
2.2393425e-08
8.0599463e-08
2.0993111e-08
1.0779945e-07
0.00010489986
2.7443375e-07
6.5049155e-06
9.8802772e-05
5.0716633e-07
6.6362236e-06
9.329591e-05
6.5854975e-07
6.1922972e-06
8.8116302e-05
7.2902547e-07
5.9257148e-06
8.3248198e-05