/*--------------------------------*- C++ -*----------------------------------*\
  =========                 |
  \\      /  F ield         | OpenFOAM: The Open Source CFD Toolbox
   \\    /   O peration     | Website:  https://openfoam.org
    \\  /    A nd           | Version:  7
     \\/     M anipulation  |
\*---------------------------------------------------------------------------*/
FoamFile
{
    version     2.0;
    format      ascii;
    class       surfaceScalarField;
    location    "300/water";
    object      phi;
}
// * * * * * * * * * * * * * * * * * * * * * * * * * * * * * * * * * * * * * //

dimensions      [1 0 -1 0 0 0 0];

internalField   nonuniform List<scalar> 
156660
(
9.905724e-05
6.0010402e-06
6.0528092e-06
8.6847497e-05
6.0555113e-06
6.1542307e-06
7.5687891e-05
5.5111362e-06
5.6484701e-06
6.5441704e-05
5.0404181e-06
5.2057689e-06
5.6267661e-05
4.4956436e-06
4.6783991e-06
4.8318019e-05
3.8797648e-06
4.0698777e-06
4.1624776e-05
3.2524448e-06
3.4407981e-06
3.6124897e-05
2.660462e-06
2.839417e-06
3.1692235e-05
2.1345127e-06
2.2981489e-06
2.8162841e-05
1.6926975e-06
1.8366964e-06
2.5361437e-05
1.3399933e-06
1.4614113e-06
2.3124664e-05
1.0698477e-06
1.1669256e-06
2.1315127e-05
8.6875419e-07
9.4078222e-07
1.9825714e-05
7.2110064e-07
7.6831273e-07
1.8577278e-05
6.1248245e-07
6.3595305e-07
1.7513255e-05
5.3125219e-07
5.3277148e-07
1.6593744e-05
4.6879726e-07
4.5071349e-07
1.5790433e-05
4.1913717e-07
3.8417385e-07
1.5082784e-05
3.782907e-07
3.2935847e-07
1.4455417e-05
3.436713e-07
2.8369563e-07
1.3896409e-05
3.1361409e-07
2.4539334e-07
1.339622e-05
2.8704449e-07
2.131445e-07
1.2947015e-05
2.6326028e-07
1.8594512e-07
1.2542237e-05
2.4179364e-07
1.6298459e-07
1.2176318e-05
2.2232208e-07
1.4359692e-07
1.1844484e-05
2.046148e-07
1.2721882e-07
1.1542609e-05
1.8849493e-07
1.1337973e-07
1.1267116e-05
1.7381572e-07
1.0167792e-07
1.1014892e-05
1.6046269e-07
9.1760828e-08
1.0783252e-05
1.4833966e-07
8.3300582e-08
1.0569851e-05
1.3734905e-07
7.6052148e-08
1.0372614e-05
1.2738862e-07
6.9848336e-08
1.0189731e-05
1.183681e-07
6.4514851e-08
1.001963e-05
1.1020448e-07
5.9896656e-08
9.8609388e-06
1.028192e-07
5.5871668e-08
9.7124594e-06
9.6137964e-08
5.2341373e-08
9.5731439e-06
9.0091181e-08
4.9224346e-08
9.4420759e-06
8.4614461e-08
4.645357e-08
9.3184531e-06
7.9648685e-08
4.3974114e-08
9.2015723e-06
7.5139711e-08
4.1741053e-08
9.0908166e-06
7.1038151e-08
3.9717554e-08
8.9856432e-06
6.7301137e-08
3.787231e-08
8.8855708e-06
6.389425e-08
3.6178143e-08
8.7901757e-06
6.0780084e-08
3.4614929e-08
8.6990829e-06
5.7926165e-08
3.3166645e-08
8.611959e-06
5.5303717e-08
3.1820142e-08
8.5285072e-06
5.2887469e-08
3.0564378e-08
8.4484618e-06
5.0655097e-08
2.9390265e-08
8.3715848e-06
4.8587055e-08
2.8290013e-08
8.2976614e-06
4.6666193e-08
2.725721e-08
8.2264975e-06
4.4877475e-08
2.6286429e-08
8.1579202e-06
4.3208785e-08
2.5368517e-08
8.0917731e-06
4.1649054e-08
2.4498048e-08
8.0279108e-06
4.0186976e-08
2.3675352e-08
7.9662006e-06
3.8812681e-08
2.2897529e-08
7.9065219e-06
3.7518397e-08
2.2160229e-08
7.8487639e-06
3.629785e-08
2.1460176e-08
7.7928242e-06
3.5145159e-08
2.0794598e-08
7.7386083e-06
3.4054659e-08
2.0161157e-08
7.6860293e-06
3.302135e-08
1.95577e-08
7.6350062e-06
3.2040801e-08
1.8982275e-08
7.5854641e-06
3.1109081e-08
1.8433078e-08
7.537333e-06
3.0222637e-08
1.7908462e-08
7.4905478e-06
2.9378272e-08
1.7407007e-08
7.4450476e-06
2.8573009e-08
1.6927198e-08
7.4007755e-06
2.7804212e-08
1.6467771e-08
7.3576783e-06
2.7069595e-08
1.6027649e-08
7.3157056e-06
2.6367061e-08
1.5605612e-08
7.2748103e-06
2.5694627e-08
1.5200651e-08
7.2349479e-06
2.5050578e-08
1.4811807e-08
7.1960766e-06
2.4433099e-08
1.4438175e-08
7.158157e-06
2.3840691e-08
1.4078924e-08
7.1211518e-06
2.3271941e-08
1.3733292e-08
7.0850258e-06
2.2725502e-08
1.3400512e-08
7.0497456e-06
2.220023e-08
1.3079925e-08
7.0152798e-06
2.1694935e-08
1.2770891e-08
6.9815985e-06
2.1208576e-08
1.2472764e-08
6.9486733e-06
2.0740263e-08
1.2184927e-08
6.9164775e-06
2.0288949e-08
1.1906804e-08
6.8849857e-06
1.9853925e-08
1.1637841e-08
6.8541739e-06
1.9434373e-08
1.1377434e-08
6.8240193e-06
1.9029486e-08
1.1125135e-08
6.7945006e-06
1.8638512e-08
1.088026e-08
6.7655975e-06
1.826078e-08
1.0642315e-08
6.7372912e-06
1.7895563e-08
1.0410749e-08
6.709564e-06
1.75421e-08
1.0185074e-08
6.6823995e-06
1.7199628e-08
9.9648935e-09
6.6557824e-06
1.6867271e-08
9.7498235e-09
6.6296983e-06
1.6544114e-08
9.5400029e-09
6.604133e-06
1.6229254e-08
9.3359951e-09
6.5790714e-06
1.5921951e-08
9.1397041e-09
6.554494e-06
1.5622311e-08
8.955101e-09
6.5303707e-06
1.5332543e-08
8.7906767e-09
6.5066467e-06
1.5060462e-08
8.6636169e-09
6.4832094e-06
1.4827797e-08
8.6095146e-09
6.4598103e-06
1.4693065e-08
8.7060217e-09
6.4358387e-06
1.482641e-08
9.1451418e-09
6.4096302e-06
1.5741717e-08
1.0466737e-08
6.3782854e-06
1.8026568e-08
1.3318245e-08
3.2300209e-08
2.7923559e-08
0.00010646494
4.1872386e-06
6.4599816e-06
0.0001002019
5.695418e-06
6.6231353e-06
9.3659588e-05
5.7790389e-06
6.2744098e-06
8.7011589e-05
5.6514782e-06
6.0369387e-06
8.0422927e-05
5.366912e-06
5.7173941e-06
7.4094022e-05
4.9022832e-06
5.3063862e-06
6.8167026e-05
4.3278135e-06
4.8516272e-06
6.2722565e-05
3.717891e-06
4.387032e-06
5.7799049e-05
3.1243144e-06
3.9337145e-06
5.3403345e-05
2.5820689e-06
3.5063329e-06
4.9517402e-05
2.1121062e-06
3.1138299e-06
4.6105482e-05
1.7220197e-06
2.7597474e-06
4.3121558e-05
1.4089355e-06
2.4437429e-06
4.0515558e-05
1.1637552e-06
2.163346e-06
3.8237948e-05
9.7485848e-07
1.9152336e-06
3.6242683e-05
8.3055972e-07
1.6959573e-06
3.4488759e-05
7.2043696e-07
1.5022849e-06
3.2940716e-05
6.3586295e-07
1.3313172e-06
3.1568463e-05
5.7005004e-07
1.1804931e-06
3.0346733e-05
5.1784901e-07
1.0475522e-06
2.9254398e-05
4.7545956e-07
9.3049033e-07
2.8273782e-05
4.4013955e-07
8.2752022e-07
2.7390054e-05
4.0994892e-07
7.3704011e-07
2.6590699e-05
3.8353952e-07
6.5760857e-07
2.5865102e-05
3.5998886e-07
5.879307e-07
2.5204197e-05
3.3867629e-07
5.2684263e-07
2.4600205e-05
3.1918359e-07
4.7330347e-07
2.4046429e-05
3.0120191e-07
4.2639015e-07
2.3537072e-05
2.8455203e-07
3.8526714e-07
2.3067119e-05
2.69111e-07
3.4918238e-07
2.2632208e-05
2.5478167e-07
3.1747786e-07
2.2228528e-05
2.4147384e-07
2.8959533e-07
2.1852744e-05
2.2911075e-07
2.6504124e-07
2.1501947e-05
2.1762895e-07
2.4337255e-07
2.1173591e-05
2.0696955e-07
2.2420572e-07
2.0865444e-05
1.970757e-07
2.0720867e-07
2.0575549e-05
1.8789255e-07
1.9209396e-07
2.0302183e-05
1.7936723e-07
1.7861344e-07
2.0043829e-05
1.7144909e-07
1.6655322e-07
1.979915e-05
1.6408983e-07
1.5572942e-07
1.956696e-05
1.572438e-07
1.4598404e-07
1.934621e-05
1.5086896e-07
1.371822e-07
1.9135969e-05
1.4492652e-07
1.2920882e-07
1.8935407e-05
1.3937907e-07
1.2196305e-07
1.8743783e-05
1.341923e-07
1.1535761e-07
1.8560435e-05
1.2933512e-07
1.0931728e-07
1.8384766e-05
1.2477911e-07
1.0377715e-07
1.8216241e-05
1.2049853e-07
9.8681267e-08
1.8054377e-05
1.1647015e-07
9.398131e-08
1.7898734e-05
1.1267293e-07
8.9635429e-08
1.7748917e-05
1.0908821e-07
8.5606984e-08
1.7604563e-05
1.0570005e-07
8.1862416e-08
1.7465345e-05
1.0249343e-07
7.8373281e-08
1.7330962e-05
9.9452982e-08
7.5116977e-08
1.7201138e-05
9.65644e-08
7.2072723e-08
1.7075619e-05
9.3816657e-08
6.9221137e-08
1.695417e-05
9.1201121e-08
6.6545135e-08
1.6836577e-05
8.8709133e-08
6.4029555e-08
1.6722638e-05
8.6331972e-08
6.166106e-08
1.661217e-05
8.4061765e-08
5.9427716e-08
1.6505001e-05
8.1891535e-08
5.7318826e-08
1.640097e-05
7.9814935e-08
5.532481e-08
1.6299929e-05
7.7826171e-08
5.3437114e-08
1.620174e-05
7.5919871e-08
5.1647905e-08
1.6106272e-05
7.4091048e-08
4.9950106e-08
1.6013404e-05
7.2334964e-08
4.8337357e-08
1.5923022e-05
7.064772e-08
4.6803849e-08
1.5835019e-05
6.9025743e-08
4.5344268e-08
1.5749294e-05
6.7465561e-08
4.3953682e-08
1.5665753e-05
6.596379e-08
4.2627668e-08
1.5584307e-05
6.4517359e-08
4.1362161e-08
1.5504871e-05
6.3123413e-08
4.0153307e-08
1.5427365e-05
6.1779328e-08
3.8997793e-08
1.5351716e-05
6.048256e-08
3.7892284e-08
1.5277852e-05
5.9230813e-08
3.6833854e-08
1.5205705e-05
5.8021994e-08
3.5819728e-08
1.5135212e-05
5.6854024e-08
3.4847347e-08
1.5066313e-05
5.5724976e-08
3.3914334e-08
1.499895e-05
5.463312e-08
3.3018418e-08
1.493307e-05
5.3576731e-08
3.215743e-08
1.4868621e-05
5.2554214e-08
3.1329419e-08
1.4805554e-05
5.1563947e-08
3.0532455e-08
1.4743823e-05
5.0604477e-08
2.9764654e-08
1.4683386e-05
4.9674285e-08
2.9024367e-08
1.4624199e-05
4.8771838e-08
2.8309876e-08
1.4566226e-05
4.7895474e-08
2.7619583e-08
1.4509431e-05
4.7043495e-08
2.6952007e-08
1.4453778e-05
4.62141e-08
2.6305792e-08
1.4399237e-05
4.5405398e-08
2.5679907e-08
1.4345777e-05
4.4615717e-08
2.5073772e-08
1.4293367e-05
4.3844271e-08
2.4487714e-08
1.4241972e-05
4.3092863e-08
2.3923762e-08
1.4191548e-05
4.2369891e-08
2.3387133e-08
1.4142019e-05
4.1699322e-08
2.288966e-08
1.4093249e-05
4.1141637e-08
2.2456623e-08
1.4044951e-05
4.0844663e-08
2.2146569e-08
1.3996485e-05
4.1169167e-08
2.2123036e-08
1.3946229e-05
4.3012297e-08
2.2985377e-08
1.389015e-05
4.8540242e-08
2.5565783e-08
6.3281539e-08
5.0000831e-08
0.00010603565
2.7876425e-06
6.4750379e-06
0.00010074799
4.4145413e-06
6.5685292e-06
9.5493515e-05
4.8594028e-06
6.1741158e-06
9.0256432e-05
4.930369e-06
5.9581921e-06
8.5101366e-05
4.8311767e-06
5.6908011e-06
8.0102875e-05
4.5561761e-06
5.3445981e-06
7.5322251e-05
4.1469521e-06
4.9614853e-06
7.0803266e-05
3.6678926e-06
4.5689837e-06
6.6576264e-05
3.1701903e-06
4.1811255e-06
6.2660725e-05
2.6900109e-06
3.8075976e-06
5.9065443e-05
2.2519318e-06
3.4554566e-06
5.5788936e-05
1.8697304e-06
3.1287957e-06
5.2820978e-05
1.5477473e-06
2.8291458e-06
5.014479e-05
1.2836302e-06
2.5563139e-06
4.7739304e-05
1.07123e-06
2.3091141e-06
4.5581183e-05
9.0281502e-07
2.0858661e-06
4.3646423e-05
7.704878e-07
1.884709e-06
4.1911533e-05
6.6697371e-07
1.7037792e-06
4.0354306e-05
5.8598198e-07
1.541295e-06
3.8954268e-05
5.2230222e-07
1.3955849e-06
3.769288e-05
4.7175603e-07
1.265091e-06
3.6553576e-05
4.3107984e-07
1.1483634e-06
3.552169e-05
3.9778206e-07
1.0440533e-06
3.4584322e-05
3.6999884e-07
9.5090831e-07
3.3730181e-05
3.4635983e-07
8.6777017e-07
3.2949411e-05
3.258776e-07
7.9356871e-07
3.2233419e-05
3.0784044e-07
7.2733487e-07
3.1574711e-05
2.9172981e-07
6.6818101e-07
3.0966769e-05
2.7719262e-07
6.1530124e-07
3.0403928e-05
2.6398097e-07
5.679702e-07
2.9881258e-05
2.5190846e-07
5.2554317e-07
2.9394455e-05
2.4082711e-07
4.8745e-07
2.8939761e-05
2.3062159e-07
4.5318325e-07
2.8513895e-05
2.2120153e-07
4.2229388e-07
2.8113985e-05
2.1249194e-07
3.9438678e-07
2.7737518e-05
2.0442796e-07
3.6911487e-07
2.7382285e-05
1.9695197e-07
3.4617383e-07
2.7046344e-05
1.9001178e-07
3.2529681e-07
2.6727982e-05
1.8355996e-07
3.0625047e-07
2.6425689e-05
1.7755276e-07
2.8883085e-07
2.6138123e-05
1.7195005e-07
2.7285984e-07
2.5864094e-05
1.6671514e-07
2.5818185e-07
2.5602546e-05
1.6181453e-07
2.446609e-07
2.535253e-05
1.5721707e-07
2.3217763e-07
2.51132e-05
1.5289444e-07
2.2062724e-07
2.4883797e-05
1.4882096e-07
2.0991768e-07
2.4663634e-05
1.4497369e-07
1.9996809e-07
2.4452094e-05
1.4133183e-07
1.9070704e-07
2.4248615e-05
1.3787699e-07
1.8207152e-07
2.405269e-05
1.345927e-07
1.7400569e-07
2.3863854e-05
1.3146464e-07
1.6645989e-07
2.3681684e-05
1.284806e-07
1.5938925e-07
2.3505794e-05
1.256292e-07
1.5275412e-07
2.3335829e-05
1.2289872e-07
1.4651966e-07
2.3171462e-05
1.2027637e-07
1.406546e-07
2.3012394e-05
1.1775474e-07
1.3513022e-07
2.2858345e-05
1.1532974e-07
1.2992044e-07
2.2709057e-05
1.129954e-07
1.2500174e-07
2.2564291e-05
1.1074521e-07
1.203529e-07
2.2423824e-05
1.0857348e-07
1.1595457e-07
2.2287451e-05
1.0647548e-07
1.1178922e-07
2.2154978e-05
1.0444703e-07
1.0784078e-07
2.2026226e-05
1.0248419e-07
1.0409458e-07
2.1901025e-05
1.0058353e-07
1.0053716e-07
2.1779218e-05
9.874155e-08
9.7156145e-08
2.1660658e-05
9.6954891e-08
9.3940293e-08
2.1545205e-05
9.5221285e-08
9.0879059e-08
2.1432729e-05
9.3538807e-08
8.7962806e-08
2.1323107e-05
9.1905338e-08
8.5182616e-08
2.1216222e-05
9.0318533e-08
8.2530175e-08
2.1111965e-05
8.8776404e-08
7.9997871e-08
2.1010233e-05
8.7277113e-08
7.7578636e-08
2.0910927e-05
8.5818942e-08
7.5265865e-08
2.0813956e-05
8.4400369e-08
7.3053433e-08
2.0719232e-05
8.3019694e-08
7.0935651e-08
2.0626671e-05
8.167565e-08
6.8907205e-08
2.0536195e-05
8.0366824e-08
6.696309e-08
2.0447729e-05
7.9091947e-08
6.5098769e-08
2.0361203e-05
7.7849816e-08
6.3309792e-08
2.0276548e-05
7.6639234e-08
6.1592041e-08
2.0193702e-05
7.5459019e-08
5.9941756e-08
2.0112602e-05
7.4307971e-08
5.8355226e-08
2.0033193e-05
7.3184925e-08
5.6829057e-08
1.9955419e-05
7.2088617e-08
5.5359992e-08
1.9879228e-05
7.1017628e-08
5.3944861e-08
1.9804572e-05
6.9970439e-08
5.2580738e-08
1.9731406e-05
6.8945261e-08
5.1264814e-08
1.9659685e-05
6.7940135e-08
4.9994411e-08
1.9589371e-05
6.6953002e-08
4.8767064e-08
1.9520423e-05
6.5982362e-08
4.7580534e-08
1.9452806e-05
6.5028024e-08
4.6433075e-08
1.9386481e-05
6.4094081e-08
4.5323731e-08
1.9321404e-05
6.3194661e-08
4.4253092e-08
1.9257511e-05
6.2366323e-08
4.3225227e-08
1.9194705e-05
6.1695174e-08
4.2253129e-08
1.9132798e-05
6.1374105e-08
4.1377393e-08
1.9071394e-05
6.1822415e-08
4.0750663e-08
1.9009424e-05
6.3924722e-08
4.105762e-08
1.8944661e-05
6.9304705e-08
4.3998826e-08
7.9170942e-08
7.4661523e-08
0.0001054937
1.9169871e-06
6.4880406e-06
0.00010005365
3.2729596e-06
6.5816334e-06
9.4926077e-05
3.8288995e-06
6.1580776e-06
8.9946373e-05
3.9838109e-06
5.9262629e-06
8.5163276e-05
3.9595077e-06
5.6547657e-06
8.0619137e-05
3.7899368e-06
5.3103784e-06
7.6329462e-05
3.5015547e-06
4.9350725e-06
7.230016e-05
3.1412013e-06
4.5559928e-06
6.8534206e-05
2.7514802e-06
4.1846641e-06
6.5032983e-05
2.3633493e-06
3.8278853e-06
6.1795789e-05
1.9984144e-06
3.490711e-06
5.8818843e-05
1.6703759e-06
3.176301e-06
5.6094717e-05
1.3858295e-06
2.886043e-06
5.3612488e-05
1.1457945e-06
2.6200649e-06
5.1358373e-05
9.4764116e-07
2.3777043e-06
4.9316593e-05
7.8676784e-07
2.1578272e-06
4.7470246e-05
6.5779543e-07
1.9590391e-06
4.5802069e-05
5.5532537e-07
1.7798252e-06
4.4295042e-05
4.7437114e-07
1.6186378e-06
4.293283e-05
4.1056665e-07
1.473948e-06
4.1700078e-05
3.6023236e-07
1.3442759e-06
4.0582591e-05
3.2035741e-07
1.2282094e-06
3.956742e-05
2.8853735e-07
1.1244154e-06
3.8642881e-05
2.6289065e-07
1.0316467e-06
3.7798527e-05
2.4196983e-07
9.4874399e-07
3.7025076e-05
2.2467702e-07
8.7465169e-07
3.6314324e-05
2.10189e-07
8.0840411e-07
3.5659057e-05
1.9788602e-07
7.4911038e-07
3.5052961e-05
1.8731578e-07
6.9597277e-07
3.4490519e-05
1.7814869e-07
6.4827381e-07
3.3966922e-05
1.7013168e-07
6.0537441e-07
3.3477973e-05
1.6306723e-07
5.6670863e-07
3.3020016e-05
1.5680295e-07
5.3177539e-07
3.2589865e-05
1.5122052e-07
5.0013241e-07
3.218474e-05
1.462256e-07
4.7139138e-07
3.1802215e-05
1.4174074e-07
4.4521234e-07
3.1440168e-05
1.3770095e-07
4.2129807e-07
3.1096739e-05
1.3405092e-07
3.9938924e-07
3.0770297e-05
1.3074294e-07
3.7925953e-07
3.0459402e-05
1.2773517e-07
3.6071192e-07
3.0162787e-05
1.2499091e-07
3.4357477e-07
2.9879325e-05
1.2247783e-07
3.2769848e-07
2.960802e-05
1.2016734e-07
3.1295269e-07
2.934798e-05
1.1803382e-07
2.9922352e-07
2.9098408e-05
1.1605462e-07
2.8641135e-07
2.885859e-05
1.1420985e-07
2.7442903e-07
2.8627882e-05
1.1248191e-07
2.6319999e-07
2.8405701e-05
1.1085562e-07
2.5265685e-07
2.819152e-05
1.0931758e-07
2.4274021e-07
2.7984859e-05
1.078565e-07
2.3339755e-07
2.7785279e-05
1.0646281e-07
2.2458212e-07
2.7592378e-05
1.0512871e-07
2.1625212e-07
2.740579e-05
1.0384741e-07
2.0837035e-07
2.7225174e-05
1.0261118e-07
2.0090359e-07
2.705022e-05
1.0140749e-07
1.9382256e-07
2.6880641e-05
1.0023386e-07
1.871004e-07
2.6716166e-05
9.9092376e-08
1.8071225e-07
2.6556546e-05
9.7980009e-08
1.7463558e-07
2.6401548e-05
9.6892537e-08
1.6885013e-07
2.6250957e-05
9.5827115e-08
1.6333743e-07
2.610457e-05
9.4781694e-08
1.5808046e-07
2.5962199e-05
9.3754705e-08
1.5306362e-07
2.5823666e-05
9.2744888e-08
1.4827259e-07
2.5688804e-05
9.1751018e-08
1.4369414e-07
2.5557458e-05
9.0771804e-08
1.3931599e-07
2.5429481e-05
8.9805219e-08
1.3512695e-07
2.5304734e-05
8.8851478e-08
1.3111647e-07
2.5183087e-05
8.7911216e-08
1.2727467e-07
2.5064416e-05
8.6983933e-08
1.2359244e-07
2.4948604e-05
8.6068901e-08
1.2006117e-07
2.4835542e-05
8.5165801e-08
1.1667302e-07
2.4725124e-05
8.4274328e-08
1.1342051e-07
2.4617252e-05
8.3394299e-08
1.1029658e-07
2.4511832e-05
8.2525493e-08
1.072948e-07
2.4408775e-05
8.1667763e-08
1.0440902e-07
2.4307997e-05
8.0820945e-08
1.0163344e-07
2.4209416e-05
7.9985027e-08
9.8962655e-08
2.4112956e-05
7.9159773e-08
9.6391568e-08
2.4018546e-05
7.8345023e-08
9.3915287e-08
2.3926115e-05
7.7540703e-08
9.1529305e-08
2.3835598e-05
7.6746552e-08
8.9229242e-08
2.3746933e-05
7.596233e-08
8.701104e-08
2.3660059e-05
7.5187628e-08
8.4870714e-08
2.3574922e-05
7.4421969e-08
8.2804537e-08
2.3491466e-05
7.3664625e-08
8.0808902e-08
2.3409641e-05
7.291463e-08
7.8880349e-08
2.33294e-05
7.2170712e-08
7.7015498e-08
2.3250698e-05
7.1431323e-08
7.5211007e-08
2.3173492e-05
7.0694859e-08
7.3463629e-08
2.3097745e-05
6.9960197e-08
7.1770074e-08
2.3023418e-05
6.9227939e-08
7.0126996e-08
2.2950477e-05
6.8503486e-08
6.8531189e-08
2.2878889e-05
6.7802881e-08
6.6979693e-08
2.2808619e-05
6.7165077e-08
6.547157e-08
2.2739625e-05
6.6675273e-08
6.4013367e-08
2.267185e-05
6.6507073e-08
6.2642311e-08
2.2605149e-05
6.6990724e-08
6.1532364e-08
2.2538888e-05
6.8686017e-08
6.1499887e-08
2.2471121e-05
7.2226945e-08
6.4845112e-08
7.6722801e-08
9.8461307e-08
0.0001051979
1.3340884e-06
6.4961221e-06
9.9496561e-05
2.3731022e-06
6.6011947e-06
9.4262459e-05
2.9019224e-06
6.1610798e-06
8.9251186e-05
3.0856642e-06
5.9094196e-06
8.4493497e-05
3.0947347e-06
5.6224614e-06
8.0033635e-05
2.9846657e-06
5.2651341e-06
7.5876907e-05
2.7790155e-06
4.8792667e-06
7.2014635e-05
2.5106844e-06
4.4927895e-06
6.8436293e-05
2.2128729e-06
4.116949e-06
6.5131387e-05
1.9107258e-06
3.7575291e-06
6.208941e-05
1.621732e-06
3.4186596e-06
5.9299432e-05
1.3573877e-06
3.1029662e-06
5.6749589e-05
1.1240344e-06
2.8116387e-06
5.4426788e-05
9.2377945e-07
2.5448157e-06
5.2316754e-05
7.5572798e-07
2.3019466e-06
5.0404313e-05
6.1717854e-07
2.0820302e-06
4.8673788e-05
5.0454347e-07
1.8837772e-06
4.7109414e-05
4.139718e-07
1.7057274e-06
4.5695713e-05
3.4173647e-07
1.5463363e-06
4.4417792e-05
2.8445143e-07
1.4040359e-06
4.3261575e-05
2.3917112e-07
1.2772781e-06
4.2213952e-05
2.0341501e-07
1.1645652e-06
4.1262871e-05
1.7514742e-07
1.0644718e-06
4.039737e-05
1.5273234e-07
9.7565898e-07
3.9607583e-05
1.3487526e-07
8.9688143e-07
3.8884688e-05
1.2055565e-07
8.2701637e-07
3.8220848e-05
1.0901094e-07
7.6501856e-07
3.7609155e-05
9.9633846e-08
7.0994488e-07
3.7043542e-05
9.1977446e-08
6.6095088e-07
3.6518702e-05
8.5705795e-08
6.1728288e-07
3.6030009e-05
8.055237e-08
5.7827309e-07
3.5573433e-05
7.6308272e-08
5.4333414e-07
3.5145475e-05
7.2811242e-08
5.1195029e-07
3.4743091e-05
6.9934103e-08
4.836702e-07
3.4363641e-05
6.7575436e-08
4.5810065e-07
3.4004828e-05
6.5652888e-08
4.3489996e-07
3.3664659e-05
6.4098584e-08
4.1377206e-07
3.3341393e-05
6.2855928e-08
3.9446094e-07
3.3033513e-05
6.1877008e-08
3.7674528e-07
3.2739693e-05
6.1121092e-08
3.6043423e-07
3.2458768e-05
6.0553042e-08
3.4536326e-07
3.2189712e-05
6.0142663e-08
3.3139056e-07
3.1931622e-05
5.9863671e-08
3.1839379e-07
3.1683696e-05
5.9693143e-08
3.0626736e-07
3.1445219e-05
5.9611219e-08
2.9492013e-07
3.1215555e-05
5.9600643e-08
2.8427316e-07
3.0994132e-05
5.964657e-08
2.7425807e-07
3.0780436e-05
5.9736188e-08
2.6481539e-07
3.0574002e-05
5.985871e-08
2.5589333e-07
3.0374407e-05
6.0004951e-08
2.4744661e-07
3.0181267e-05
6.0167636e-08
2.3943547e-07
2.9994229e-05
6.034128e-08
2.3182486e-07
2.9812971e-05
6.0521819e-08
2.2458372e-07
2.9637193e-05
6.0704494e-08
2.1768452e-07
2.9466629e-05
6.0867321e-08
2.1110458e-07
2.9301024e-05
6.1016991e-08
2.0482178e-07
2.914014e-05
6.1160864e-08
1.9881569e-07
2.8983756e-05
6.1294982e-08
1.930684e-07
2.8831669e-05
6.1415477e-08
1.8756388e-07
2.8683688e-05
6.152095e-08
1.8228764e-07
2.8539633e-05
6.161055e-08
1.7722631e-07
2.8399336e-05
6.1683795e-08
1.7236783e-07
2.8262639e-05
6.1740491e-08
1.677009e-07
2.8129394e-05
6.178072e-08
1.6321519e-07
2.7999461e-05
6.1803902e-08
1.5890121e-07
2.7872709e-05
6.1807408e-08
1.5475035e-07
2.7749012e-05
6.17936e-08
1.5075442e-07
2.7628253e-05
6.1764845e-08
1.4690558e-07
2.7510319e-05
6.1721028e-08
1.4319662e-07
2.7395105e-05
6.1662113e-08
1.3962084e-07
2.728251e-05
6.1588634e-08
1.3617201e-07
2.7172439e-05
6.1501089e-08
1.3284419e-07
2.7064802e-05
6.1399973e-08
1.2963191e-07
2.6959511e-05
6.1285943e-08
1.265299e-07
2.6856486e-05
6.1159529e-08
1.2353326e-07
2.6755649e-05
6.102131e-08
1.2063732e-07
2.6656924e-05
6.087184e-08
1.1783767e-07
2.6560242e-05
6.0711695e-08
1.1513015e-07
2.6465535e-05
6.0541392e-08
1.1251081e-07
2.6372738e-05
6.0361306e-08
1.0997579e-07
2.6281791e-05
6.0171926e-08
1.0752159e-07
2.6192636e-05
5.9973536e-08
1.0514471e-07
2.6105215e-05
5.9766298e-08
1.0284183e-07
2.6019477e-05
5.9550251e-08
1.0060974e-07
2.5935371e-05
5.9325129e-08
9.8445279e-08
2.585285e-05
5.9090495e-08
9.6345372e-08
2.5771868e-05
5.8845499e-08
9.4306934e-08
2.5692384e-05
5.8589016e-08
9.2326724e-08
2.5614357e-05
5.8319823e-08
9.0401443e-08
2.5537753e-05
5.8037058e-08
8.85273e-08
2.5462539e-05
5.7741597e-08
8.6700222e-08
2.5388689e-05
5.7438391e-08
8.4915136e-08
2.5316184e-05
5.7141451e-08
8.3166602e-08
2.5245017e-05
5.6882582e-08
8.1449646e-08
2.51752e-05
5.6726048e-08
7.9765807e-08
2.510677e-05
5.6787932e-08
7.8149181e-08
2.5039729e-05
5.7251607e-08
7.678095e-08
2.4973573e-05
5.8330934e-08
7.65102e-08
2.4906079e-05
5.9989464e-08
7.9732182e-08
6.0715001e-08
1.1287825e-07
0.00010503672
9.0789369e-07
6.5005614e-06
9.9140653e-05
1.6524914e-06
6.6166801e-06
9.3788329e-05
2.0825241e-06
6.1717217e-06
8.8708526e-05
2.2549373e-06
5.91053e-06
8.3909682e-05
2.278404e-06
5.6151748e-06
7.9437109e-05
2.2074821e-06
5.2497564e-06
7.5296201e-05
2.0645348e-06
4.8553893e-06
7.1474034e-05
1.8722543e-06
4.4605969e-06
6.7955013e-05
1.6547667e-06
4.0771269e-06
6.4723621e-05
1.4313505e-06
3.7107669e-06
6.1764423e-05
1.2154298e-06
3.3655007e-06
5.9062056e-05
1.015864e-06
3.0438911e-06
5.6601108e-05
8.3782743e-07
2.7471548e-06
5.4365944e-05
6.8344648e-07
2.475497e-06
5.2340648e-05
5.5258527e-07
2.2284383e-06
5.0509125e-05
4.4366549e-07
2.0050361e-06
4.8855299e-05
3.5433458e-07
1.8040352e-06
4.7363353e-05
2.8193593e-07
1.6239821e-06
4.6017963e-05
2.2381346e-07
1.4633127e-06
4.4804502e-05
1.7749382e-07
1.3204181e-06
4.3709199e-05
1.4078088e-07
1.1936935e-06
4.2719248e-05
1.1179155e-07
1.081575e-06
4.1822875e-05
8.8954523e-08
9.8256582e-07
4.1009364e-05
7.0987974e-08
8.9525472e-07
4.0269054e-05
5.6861829e-08
8.1832383e-07
3.9593306e-05
4.5719134e-08
7.5058473e-07
3.8974405e-05
3.6977858e-08
6.9093436e-07
3.8405585e-05
3.0067381e-08
6.3838631e-07
3.7880869e-05
2.4650846e-08
5.9204242e-07
3.7395029e-05
2.0439997e-08
5.5110608e-07
3.6943514e-05
1.7190259e-08
5.1487715e-07
3.6522366e-05
1.4716718e-08
4.8273956e-07
3.6128148e-05
1.2874762e-08
4.5415388e-07
3.5757883e-05
1.154988e-08
4.2864942e-07
3.5408991e-05
1.0650782e-08
4.0581703e-07
3.5079238e-05
1.010365e-08
3.8530228e-07
3.4766689e-05
9.8482673e-09
3.6679877e-07
3.4469668e-05
9.8351093e-09
3.5004235e-07
3.4186716e-05
1.00229e-08
3.3480553e-07
3.3916567e-05
1.0377009e-08
3.2089286e-07
3.3658116e-05
1.0868088e-08
3.081366e-07
3.3410395e-05
1.147097e-08
2.9639283e-07
3.3172556e-05
1.2164244e-08
2.8553825e-07
3.2943852e-05
1.2929312e-08
2.7546717e-07
3.2723625e-05
1.3750174e-08
2.6608891e-07
3.2511286e-05
1.46131e-08
2.5732572e-07
3.2306316e-05
1.5506259e-08
2.4911065e-07
3.2108246e-05
1.6419603e-08
2.413862e-07
3.1916658e-05
1.7344641e-08
2.3410269e-07
3.1731171e-05
1.8274341e-08
2.2721713e-07
3.1551444e-05
1.9203183e-08
2.2069216e-07
3.1377162e-05
2.0127778e-08
2.1449509e-07
3.1208038e-05
2.1048719e-08
2.0859679e-07
3.10438e-05
2.1972811e-08
2.0297052e-07
3.0884232e-05
2.2827874e-08
1.9760733e-07
3.0729103e-05
2.3662972e-08
1.924823e-07
3.05782e-05
2.4489992e-08
1.8757381e-07
3.0431331e-05
2.5296271e-08
1.8286761e-07
3.0288318e-05
2.6077992e-08
1.7835075e-07
3.0148994e-05
2.6834303e-08
1.7401105e-07
3.0013202e-05
2.7564708e-08
1.6983753e-07
2.9880797e-05
2.8268963e-08
1.6582025e-07
2.975164e-05
2.894745e-08
1.6195013e-07
2.9625601e-05
2.9600825e-08
1.5821896e-07
2.9502557e-05
3.0228594e-08
1.5461921e-07
2.9382396e-05
3.0823587e-08
1.5114466e-07
2.9265007e-05
3.1393132e-08
1.4778876e-07
2.9150287e-05
3.1939607e-08
1.4454537e-07
2.9038137e-05
3.2461881e-08
1.41409e-07
2.8928465e-05
3.2960084e-08
1.383746e-07
2.8821181e-05
3.3434707e-08
1.354375e-07
2.8716203e-05
3.3886365e-08
1.3259328e-07
2.8613449e-05
3.4315581e-08
1.2983786e-07
2.8512845e-05
3.472289e-08
1.2716734e-07
2.8414317e-05
3.5108969e-08
1.2457816e-07
2.8317797e-05
3.547446e-08
1.2206681e-07
2.8223219e-05
3.5819907e-08
1.1963009e-07
2.813052e-05
3.6145912e-08
1.1726491e-07
2.803964e-05
3.6453069e-08
1.1496841e-07
2.7950522e-05
3.6741883e-08
1.1273772e-07
2.7863111e-05
3.7012801e-08
1.1057028e-07
2.7777354e-05
3.7266256e-08
1.0846344e-07
2.7693204e-05
3.7502486e-08
1.0641475e-07
2.761061e-05
3.7721607e-08
1.0442175e-07
2.752953e-05
3.7923536e-08
1.0248201e-07
2.7449919e-05
3.8107979e-08
1.0059308e-07
2.7371738e-05
3.827428e-08
9.8752313e-08
2.7294949e-05
3.8421564e-08
9.6956904e-08
2.7219516e-05
3.85487e-08
9.5203644e-08
2.714541e-05
3.8655103e-08
9.3488628e-08
2.7072603e-05
3.8741132e-08
9.1806954e-08
2.7001079e-05
3.8810277e-08
9.0152315e-08
2.6930832e-05
3.8872122e-08
8.8516553e-08
2.6861876e-05
3.8947388e-08
8.6890515e-08
2.679426e-05
3.9073534e-08
8.5269191e-08
2.6728065e-05
3.9306929e-08
8.3675939e-08
2.6663337e-05
3.9708346e-08
8.2271139e-08
2.659956e-05
4.0271995e-08
8.1836165e-08
2.6534295e-05
4.0698014e-08
8.4555711e-08
3.962083e-08
1.150713e-07
0.00010494757
5.6811081e-07
6.5033076e-06
9.8925416e-05
1.0462983e-06
6.6283517e-06
9.3480449e-05
1.3439844e-06
6.1835065e-06
8.8341777e-05
1.4751324e-06
5.9184763e-06
8.3502084e-05
1.4993911e-06
5.6187065e-06
7.9004057e-05
1.4572411e-06
5.2482679e-06
7.4853978e-05
1.3667382e-06
4.8478757e-06
7.1037378e-05
1.2423973e-06
4.4464569e-06
6.7536063e-05
1.0997693e-06
4.0563127e-06
6.4331998e-05
9.5192359e-07
3.683491e-06
6.1407318e-05
8.0805752e-07
3.3320524e-06
5.8744339e-05
6.7422202e-07
3.0046209e-06
5.6325632e-05
5.5404398e-07
2.7024907e-06
5.4133973e-05
4.4916748e-07
2.4259383e-06
5.2152298e-05
3.5972398e-07
2.174536e-06
5.0363747e-05
2.8484513e-07
1.9473718e-06
4.875178e-05
2.2310004e-07
1.7432015e-06
4.7300339e-05
1.7281165e-07
1.5605647e-06
4.5994012e-05
1.3226572e-07
1.3978748e-06
4.4818177e-05
9.984001e-08
1.2534891e-06
4.3759121e-05
7.4075622e-08
1.1257614e-06
4.2804123e-05
5.3707646e-08
1.0130814e-06
4.1941503e-05
3.7671194e-08
9.1390376e-07
4.1160627e-05
2.5096465e-08
8.2676731e-07
4.0451891e-05
1.5294168e-08
7.5030387e-07
3.980679e-05
7.5281999e-09
6.8329173e-07
3.9217543e-05
1.6727546e-09
6.2455204e-07
3.8677513e-05
-3.0330991e-09
5.7313083e-07
3.8180739e-05
-6.64865e-09
5.2807355e-07
3.7722004e-05
-9.3595031e-09
4.8853449e-07
3.7296777e-05
-1.1371791e-08
4.5378927e-07
3.6901112e-05
-1.2818246e-08
4.2319912e-07
3.6531588e-05
-1.3805276e-08
3.962048e-07
3.6185236e-05
-1.4417498e-08
3.7231875e-07
3.5859491e-05
-1.4721875e-08
3.5111774e-07
3.5552132e-05
-1.4772619e-08
3.3223579e-07
3.5261237e-05
-1.4613903e-08
3.1535728e-07
3.4985143e-05
-1.4282157e-08
3.002109e-07
3.472241e-05
-1.380771e-08
2.8656375e-07
3.4471787e-05
-1.3215915e-08
2.7421628e-07
3.4232185e-05
-1.2528203e-08
2.6299767e-07
3.4002657e-05
-1.17628e-08
2.5276173e-07
3.3782373e-05
-1.0935277e-08
2.4338334e-07
3.3570606e-05
-1.0058752e-08
2.3475557e-07
3.3366714e-05
-9.1447555e-09
2.2678672e-07
3.3170132e-05
-8.2028279e-09
2.1939835e-07
3.2980356e-05
-7.241216e-09
2.1252302e-07
3.279694e-05
-6.2668677e-09
2.0610282e-07
3.2619482e-05
-5.2855256e-09
2.0008785e-07
3.2447623e-05
-4.3018197e-09
1.944348e-07
3.228104e-05
-3.3190427e-09
1.8910587e-07
3.2119438e-05
-2.3383142e-09
1.8406734e-07
3.1962554e-05
-1.3530326e-09
1.7928644e-07
3.1810075e-05
-2.7629724e-10
1.7472763e-07
3.1661878e-05
5.8583787e-10
1.7043904e-07
3.1517732e-05
1.4356236e-09
1.6637295e-07
3.1377429e-05
2.3038294e-09
1.6248961e-07
3.1240792e-05
3.1586684e-09
1.5877487e-07
3.1107656e-05
3.9969907e-09
1.5521716e-07
3.0977867e-05
4.8171999e-09
1.5180544e-07
3.0851284e-05
5.6180011e-09
1.4852966e-07
3.0727774e-05
6.3990452e-09
1.4538075e-07
3.0607209e-05
7.1609387e-09
1.4235053e-07
3.0489473e-05
7.9059968e-09
1.3943121e-07
3.037445e-05
8.6357622e-09
1.3661576e-07
3.0262049e-05
9.3206838e-09
1.3390399e-07
3.0152163e-05
9.9938339e-09
1.3128567e-07
3.0044697e-05
1.0650391e-08
1.2875514e-07
2.9939564e-05
1.1286734e-08
1.2630828e-07
2.983668e-05
1.1903195e-08
1.239409e-07
2.9735965e-05
1.2500146e-08
1.2164885e-07
2.9637345e-05
1.3077866e-08
1.1942842e-07
2.9540748e-05
1.3636711e-08
1.1727614e-07
2.9446105e-05
1.4177038e-08
1.151888e-07
2.9353352e-05
1.4699198e-08
1.1316341e-07
2.9262425e-05
1.520355e-08
1.1119703e-07
2.9173268e-05
1.5690479e-08
1.0928709e-07
2.9085822e-05
1.6160381e-08
1.0743108e-07
2.9000035e-05
1.6613582e-08
1.0562663e-07
2.8915855e-05
1.7050405e-08
1.0387152e-07
2.8833233e-05
1.7471142e-08
1.0216362e-07
2.8752123e-05
1.7875954e-08
1.0050081e-07
2.8672479e-05
1.8265095e-08
9.888109e-08
2.8594259e-05
1.8638543e-08
9.7302512e-08
2.8517424e-05
1.8996223e-08
9.576297e-08
2.8441934e-05
1.9337816e-08
9.4260349e-08
2.8367753e-05
1.9662799e-08
9.2792351e-08
2.8294848e-05
1.9970467e-08
9.1356276e-08
2.8223187e-05
2.0260023e-08
8.9948863e-08
2.8152746e-05
2.0530708e-08
8.8565933e-08
2.8083503e-05
2.0782625e-08
8.7201817e-08
2.8015447e-05
2.1017554e-08
8.5848689e-08
2.7948582e-05
2.1240728e-08
8.4495836e-08
2.7882937e-05
2.1462716e-08
8.3129497e-08
2.7818574e-05
2.1699993e-08
8.1736522e-08
2.7755588e-05
2.1969271e-08
8.0324346e-08
2.7694014e-05
2.2266168e-08
7.9016054e-08
2.7633299e-05
2.2506301e-08
7.8480633e-08
2.7571004e-05
2.2393434e-08
8.0599455e-08
2.0993102e-08
1.0779947e-07
0.00010489986
2.7443376e-07
6.5049155e-06
9.8802772e-05
5.0716634e-07
6.6362236e-06
9.329591e-05
6.5854976e-07
6.1922972e-06
8.8116302e-05
7.2902546e-07
5.9257147e-06
8.3248198e-05