/*--------------------------------*- C++ -*----------------------------------*\
  =========                 |
  \\      /  F ield         | OpenFOAM: The Open Source CFD Toolbox
   \\    /   O peration     | Website:  https://openfoam.org
    \\  /    A nd           | Version:  7
     \\/     M anipulation  |
\*---------------------------------------------------------------------------*/
FoamFile
{
    version     2.0;
    format      ascii;
    class       volVectorField;
    location    "300/water";
    object      U;
}
// * * * * * * * * * * * * * * * * * * * * * * * * * * * * * * * * * * * * * //

dimensions      [0 1 -1 0 0 0 0];

internalField   nonuniform List<vector> 
54000
(
(0.0090020934 0.00020305973 0.00020444027)
(0.0083186447 0.00023622738 0.00023904411)
(0.0073695241 0.00021363852 0.00021763527)
(0.0063566114 0.00018488016 0.00018965819)
(0.0054486673 0.00015530836 0.00016048633)
(0.0046741594 0.00012529952 0.00013052937)
(0.0040193038 9.705261e-05 0.00010203017)
(0.0034740067 7.2578999e-05 7.7073288e-05)
(0.0030302461 5.2876127e-05 5.6738329e-05)
(0.0026757323 3.806815e-05 4.1216512e-05)
(0.0023947254 2.7637703e-05 3.0037141e-05)
(0.0021713898 2.0689034e-05 2.2336509e-05)
(0.0019919695 1.6236161e-05 1.7152702e-05)
(0.0018455015 1.3416236e-05 1.3643172e-05)
(0.0017237326 1.1582489e-05 1.1179122e-05)
(0.0016206928 1.0304891e-05 9.3455809e-06)
(0.0015321593 9.3257912e-06 7.8957159e-06)
(0.0014551546 8.5052959e-06 6.6953101e-06)
(0.0013875459 7.7746334e-06 5.6760572e-06)
(0.0013277612 7.1034289e-06 4.8034862e-06)
(0.001274601 6.4798502e-06 4.0581567e-06)
(0.0012271179 5.8999456e-06 3.4261571e-06)
(0.0011845424 5.362529e-06 2.8950717e-06)
(0.001146235 4.8670207e-06 2.452629e-06)
(0.0011116558 4.4125996e-06 2.086977e-06)
(0.0010803434 3.9980128e-06 1.7867453e-06)
(0.0010519002 3.6214596e-06 1.5416123e-06)
(0.0010259819 3.2805931e-06 1.3421847e-06)
(0.001002289 2.9733947e-06 1.1797308e-06)
(0.00098056199 2.697949e-06 1.0463193e-06)
(0.00096057571 2.4519213e-06 9.3658973e-07)
(0.00094213242 2.2325663e-06 8.4693425e-07)
(0.00092505792 2.0373872e-06 7.7316654e-07)
(0.00090920047 1.8640896e-06 7.1184308e-07)
(0.00089442818 1.7104621e-06 6.6046763e-07)
(0.0008806259 1.5743827e-06 6.1707395e-07)
(0.00086769295 1.4538615e-06 5.8005322e-07)
(0.00085554128 1.3470709e-06 5.4811472e-07)
(0.00084409387 1.2523503e-06 5.2023884e-07)
(0.00083328322 1.1681986e-06 4.9562716e-07)
(0.00082305015 1.0932614e-06 4.7365307e-07)
(0.00081334267 1.0262296e-06 4.5378307e-07)
(0.00080411486 9.6585895e-07 4.3554423e-07)
(0.00079532615 9.1131033e-07 4.1865023e-07)
(0.0007869407 8.6191679e-07 4.0290682e-07)
(0.00077892675 8.1708267e-07 3.8816853e-07)
(0.00077125603 7.762775e-07 3.7431998e-07)
(0.0007639033 7.3902699e-07 3.6127555e-07)
(0.00075684598 7.0491499e-07 3.4896383e-07)
(0.00075006373 6.7357564e-07 3.3733146e-07)
(0.00074353822 6.4469404e-07 3.2633721e-07)
(0.00073725294 6.1802564e-07 3.1581802e-07)
(0.00073119314 5.9334792e-07 3.0574396e-07)
(0.00072534528 5.7041899e-07 2.96211e-07)
(0.00071969687 5.4902496e-07 2.8716638e-07)
(0.00071423653 5.2901451e-07 2.785432e-07)
(0.00070895386 5.1027326e-07 2.7031221e-07)
(0.00070383928 4.9268739e-07 2.6244861e-07)
(0.00069888397 4.7614452e-07 2.5493238e-07)
(0.00069407976 4.6054964e-07 2.4774375e-07)
(0.00068941911 4.4582052e-07 2.4086447e-07)
(0.00068489502 4.3188544e-07 2.3427649e-07)
(0.00068050097 4.1868011e-07 2.2796324e-07)
(0.00067623091 4.0614769e-07 2.2191225e-07)
(0.00067207915 3.9423496e-07 2.1610562e-07)
(0.00066804042 3.8289644e-07 2.1053057e-07)
(0.00066410976 3.7209454e-07 2.0517796e-07)
(0.00066028251 3.6179426e-07 2.0003199e-07)
(0.00065655429 3.5196171e-07 1.9508198e-07)
(0.00065292099 3.4256969e-07 1.9031738e-07)
(0.00064937872 3.3358644e-07 1.8572821e-07)
(0.00064592384 3.2498822e-07 1.8130544e-07)
(0.00064255288 3.1675218e-07 1.7704076e-07)
(0.00063926261 3.0885632e-07 1.7292482e-07)
(0.00063604992 3.0128333e-07 1.6895058e-07)
(0.00063291192 2.9401365e-07 1.6511085e-07)
(0.00062984583 2.8703078e-07 1.6139787e-07)
(0.00062684904 2.8032234e-07 1.5780339e-07)
(0.00062391907 2.7386993e-07 1.5432059e-07)
(0.00062105358 2.6766495e-07 1.5094248e-07)
(0.00061825035 2.6169466e-07 1.4766034e-07)
(0.00061550726 2.559461e-07 1.4447003e-07)
(0.00061282235 2.5040757e-07 1.4136009e-07)
(0.00061019373 2.4506936e-07 1.3832447e-07)
(0.00060761964 2.3991979e-07 1.3535578e-07)
(0.00060509845 2.3494604e-07 1.3244819e-07)
(0.00060262862 2.3013505e-07 1.2959888e-07)
(0.00060020873 2.2546983e-07 1.2680445e-07)
(0.00059783744 2.2093128e-07 1.2407592e-07)
(0.00059551348 2.1649823e-07 1.2143358e-07)
(0.00059323554 2.1214828e-07 1.1892986e-07)
(0.00059100214 2.0787133e-07 1.1666257e-07)
(0.00058881114 2.0369027e-07 1.1483047e-07)
(0.00058665898 1.9973134e-07 1.1382056e-07)
(0.00058453869 1.9638396e-07 1.1441055e-07)
(0.00058243501 1.9487235e-07 1.183734e-07)
(0.00058031396 1.9977476e-07 1.3094389e-07)
(0.0005781161 2.2258368e-07 1.6397588e-07)
(0.00057566369 1.9706934e-07 1.5080687e-07)
(0.000569062 7.8896399e-07 7.5322615e-07)
(0.0095316863 0.0003313754 0.00022336697)
(0.0092716504 0.00041105942 0.00027052342)
(0.0087756651 0.00040317187 0.00026060063)
(0.0081527518 0.00038218754 0.00024252081)
(0.0075302151 0.00035309574 0.00022101124)
(0.0069425889 0.00031541062 0.00019648834)
(0.006391209 0.00027309198 0.00017102969)
(0.0058791845 0.00023030694 0.00014652546)
(0.0054120202 0.00019001855 0.00012410997)
(0.0049926512 0.00015423459 0.00010436627)
(0.004620592 0.00012408347 8.7479017e-05)
(0.0042931332 9.9809403e-05 7.3327495e-05)
(0.0040063965 8.0956424e-05 6.1601503e-05)
(0.0037559538 6.667221e-05 5.1918794e-05)
(0.0035372541 5.5985799e-05 4.3907445e-05)
(0.003345947 4.7992055e-05 3.7246645e-05)
(0.0031780884 4.194171e-05 3.167753e-05)
(0.0030302311 3.7262446e-05 2.6997921e-05)
(0.0028994324 3.3540995e-05 2.3051138e-05)
(0.0027832152 3.0490246e-05 1.9714593e-05)
(0.0026795075 2.7915736e-05 1.6890544e-05)
(0.0025865783 2.568784e-05 1.4499382e-05)
(0.002502978 2.3720891e-05 1.2475016e-05)
(0.0024274871 2.1958429e-05 1.0761726e-05)
(0.0023590736 2.0362992e-05 9.3122315e-06)
(0.0022968589 1.8909453e-05 8.0861292e-06)
(0.0022400906 1.7580767e-05 7.0489621e-06)
(0.0021881216 1.6364898e-05 6.1714969e-06)
(0.0021403932 1.5251961e-05 5.4283134e-06)
(0.0020964214 1.4233849e-05 4.7973498e-06)
(0.0020557868 1.3303041e-05 4.2604821e-06)
(0.0020181236 1.2451986e-05 3.8027039e-06)
(0.0019831119 1.1673909e-05 3.4109607e-06)
(0.0019504718 1.0962756e-05 3.0744199e-06)
(0.0019199589 1.0312854e-05 2.78426e-06)
(0.0018913593 9.7188344e-06 2.5331802e-06)
(0.0018644851 9.1756453e-06 2.3150734e-06)
(0.0018391716 8.6785721e-06 2.1248312e-06)
(0.0018152735 8.2232431e-06 1.9581836e-06)
(0.0017926629 7.8056205e-06 1.8115674e-06)
(0.0017712268 7.4219973e-06 1.6820118e-06)
(0.001750865 7.0689376e-06 1.5670709e-06)
(0.0017314886 6.7432689e-06 1.4647428e-06)
(0.0017130186 6.4422725e-06 1.3732745e-06)
(0.0016953848 6.1635567e-06 1.2911585e-06)
(0.0016785241 5.9049785e-06 1.2171198e-06)
(0.00166238 5.6646115e-06 1.1500838e-06)
(0.0016469019 5.4407262e-06 1.0891483e-06)
(0.001632044 5.2317784e-06 1.033553e-06)
(0.0016177649 5.036385e-06 9.8265448e-07)
(0.0016040271 4.8533223e-06 9.3589367e-07)
(0.0015907965 4.6815628e-06 8.927373e-07)
(0.0015780424 4.5201585e-06 8.5278678e-07)
(0.0015657364 4.3681531e-06 8.1576994e-07)
(0.0015538526 4.2246824e-06 7.813849e-07)
(0.0015423672 4.0890603e-06 7.4934475e-07)
(0.0015312583 3.9607288e-06 7.1941345e-07)
(0.0015205058 3.8391528e-06 6.9138765e-07)
(0.0015100909 3.7238128e-06 6.6509442e-07)
(0.0014999963 3.6142431e-06 6.4038023e-07)
(0.0014902061 3.5100298e-06 6.1710885e-07)
(0.0014807053 3.4107994e-06 5.9515954e-07)
(0.00147148 3.316213e-06 5.7442732e-07)
(0.0014625175 3.2259608e-06 5.5481477e-07)
(0.0014538055 3.1397557e-06 5.3623528e-07)
(0.0014453328 3.0573337e-06 5.1861255e-07)
(0.0014370889 2.9784703e-06 5.0187792e-07)
(0.0014290637 2.902959e-06 4.8596802e-07)
(0.001421248 2.830603e-06 4.7082304e-07)
(0.001413633 2.761219e-06 4.563918e-07)
(0.0014062103 2.6946336e-06 4.4262797e-07)
(0.0013989723 2.6306909e-06 4.294857e-07)
(0.0013919116 2.5692468e-06 4.1693025e-07)
(0.0013850211 2.5101636e-06 4.0492081e-07)
(0.0013782945 2.4533185e-06 3.934251e-07)
(0.0013717253 2.3985956e-06 3.8241131e-07)
(0.0013653078 2.3458846e-06 3.7185099e-07)
(0.0013590364 2.2950863e-06 3.617174e-07)
(0.0013529058 2.2461034e-06 3.5198424e-07)
(0.001346911 2.1988501e-06 3.4262582e-07)
(0.0013410472 2.1532426e-06 3.3362062e-07)
(0.0013353099 2.1091969e-06 3.2494569e-07)
(0.001329695 2.0666371e-06 3.1657796e-07)
(0.0013241983 2.0254884e-06 3.0849987e-07)
(0.001318816 1.9856742e-06 3.0069046e-07)
(0.0013135446 1.9471141e-06 2.9313098e-07)
(0.0013083808 1.9097264e-06 2.8580628e-07)
(0.0013033213 1.8734237e-06 2.7870295e-07)
(0.0012983632 1.8381145e-06 2.7181684e-07)
(0.0012935038 1.8037142e-06 2.6515425e-07)
(0.0012887402 1.7701697e-06 2.5874318e-07)
(0.0012840698 1.7375325e-06 2.5265057e-07)
(0.0012794889 1.7061207e-06 2.4701359e-07)
(0.0012749925 1.6769099e-06 2.421143e-07)
(0.001270572 1.6524674e-06 2.3851838e-07)
(0.0012662098 1.6393331e-06 2.3766026e-07)
(0.0012618709 1.6545761e-06 2.4458221e-07)
(0.0012574959 1.7463704e-06 2.7712412e-07)
(0.0012529717 2.0376709e-06 2.6526382e-07)
(0.0012433358 2.9514815e-06 1.3525323e-06)
(0.0095221617 0.00021179965 0.00022180581)
(0.009269783 0.00029872516 0.00026628967)
(0.0088657772 0.00031669844 0.00025526743)
(0.0083755729 0.000317438 0.00023864265)
(0.0078888426 0.00030841043 0.00021987851)
(0.0074276349 0.00028848207 0.00019850457)
(0.006988258 0.0002604839 0.00017617916)
(0.0065698164 0.00022855168 0.00015444521)
(0.0061756011 0.00019596771 0.00013413534)
(0.0058087146 0.00016504408 0.00011567593)
(0.0054706295 0.00013728621 9.9270839e-05)
(0.0051615551 0.00011345265 8.4947831e-05)
(0.0048808654 9.3684507e-05 7.2600737e-05)
(0.0046272998 7.7712986e-05 6.2044901e-05)
(0.0043991196 6.5057024e-05 5.3064543e-05)
(0.0041942886 5.5163886e-05 4.544363e-05)
(0.0040106431 4.7493346e-05 3.8982753e-05)
(0.0038460219 4.1561376e-05 3.350638e-05)
(0.0036983537 3.6958193e-05 2.8864074e-05)
(0.0035657105 3.3351176e-05 2.4928487e-05)
(0.0034463343 3.0479502e-05 2.1592135e-05)
(0.003338646 2.8144767e-05 1.8764099e-05)
(0.003241243 2.6200154e-05 1.6367139e-05)
(0.0031528887 2.4539752e-05 1.4335369e-05)
(0.0030724986 2.3088865e-05 1.2612489e-05)
(0.0029991252 2.1796112e-05 1.1150134e-05)
(0.0029319421 2.0626904e-05 9.9064823e-06)
(0.0028702292 1.9558162e-05 8.8458147e-06)
(0.0028133589 1.8574035e-05 7.9385366e-06)
(0.0027607855 1.7663621e-05 7.1598231e-06)
(0.0027120345 1.6818833e-05 6.4890362e-06)
(0.0026666927 1.6033066e-05 5.9090204e-06)
(0.0026243991 1.5301096e-05 5.4052715e-06)
(0.0025848382 1.461882e-05 4.965653e-06)
(0.0025477347 1.3982714e-05 4.5801156e-06)
(0.0025128472 1.3389544e-05 4.2403262e-06)
(0.002479964 1.2836283e-05 3.9393557e-06)
(0.0024488994 1.2320059e-05 3.671426e-06)
(0.0024194896 1.1838145e-05 3.4317271e-06)
(0.00239159 1.138794e-05 3.2162513e-06)
(0.0023650729 1.0966985e-05 3.0216602e-06)
(0.0023398248 1.0572999e-05 2.8451737e-06)
(0.0023157449 1.0203874e-05 2.6844738e-06)
(0.0022927433 9.8575803e-06 2.5375939e-06)
(0.0022707398 9.5322163e-06 2.402863e-06)
(0.002249662 9.2260298e-06 2.278865e-06)
(0.0022294453 8.9374207e-06 2.164399e-06)
(0.0022100312 8.6649293e-06 2.0584373e-06)
(0.0021913666 8.4072391e-06 1.9601009e-06)
(0.0021734038 8.1631558e-06 1.868631e-06)
(0.0021560989 7.9316224e-06 1.7833671e-06)
(0.0021394122 7.7117251e-06 1.7037079e-06)
(0.0021233074 7.502604e-06 1.6291515e-06)
(0.0021077512 7.3033802e-06 1.5592825e-06)
(0.0020927129 7.1131879e-06 1.4937196e-06)
(0.0020781645 6.9314161e-06 1.432105e-06)
(0.0020640799 6.757607e-06 1.3741144e-06)
(0.0020504351 6.5912626e-06 1.3194618e-06)
(0.0020372075 6.4318807e-06 1.267895e-06)
(0.0020243766 6.2790069e-06 1.2191865e-06)
(0.0020119231 6.1322414e-06 1.1731317e-06)
(0.001999829 5.9912217e-06 1.1295429e-06)
(0.0019880776 5.8556116e-06 1.0882499e-06)
(0.0019766531 5.7251052e-06 1.0490956e-06)
(0.0019655411 5.599409e-06 1.0119374e-06)
(0.0019547276 5.4782441e-06 9.7664694e-07)
(0.0019441999 5.3613904e-06 9.4310145e-07)
(0.0019339458 5.2486488e-06 9.1118959e-07)
(0.0019239539 5.1398201e-06 8.8080807e-07)
(0.0019142135 5.0347034e-06 8.5186009e-07)
(0.0019047144 4.9331191e-06 8.2425902e-07)
(0.001895447 4.8348998e-06 7.9792429e-07)
(0.0018864023 4.7398904e-06 7.7278023e-07)
(0.0018775718 4.6479454e-06 7.4875638e-07)
(0.0018689473 4.5589226e-06 7.2578788e-07)
(0.0018605211 4.4727002e-06 7.0381406e-07)
(0.0018522861 4.3891537e-06 6.8277666e-07)
(0.0018442353 4.3081683e-06 6.6262574e-07)
(0.0018363621 4.2296379e-06 6.4330856e-07)
(0.0018286604 4.1534584e-06 6.2477683e-07)
(0.0018211241 4.0795303e-06 6.0698889e-07)
(0.0018137478 4.0077538e-06 5.8990027e-07)
(0.0018065261 3.9380359e-06 5.734727e-07)
(0.001799454 3.8702794e-06 5.5766794e-07)
(0.0017925266 3.8043826e-06 5.4244775e-07)
(0.0017857395 3.7402373e-06 5.2777897e-07)
(0.0017790885 3.6777268e-06 5.1362983e-07)
(0.0017725695 3.6167263e-06 4.9997033e-07)
(0.0017661787 3.5571063e-06 4.8677552e-07)
(0.0017599128 3.4987612e-06 4.7402489e-07)
(0.0017537682 3.4416544e-06 4.6170899e-07)
(0.0017477416 3.3859629e-06 4.498354e-07)
(0.0017418294 3.3323812e-06 4.3844301e-07)
(0.0017360272 3.2827915e-06 4.2764635e-07)
(0.0017303281 3.241778e-06 4.1776804e-07)
(0.0017247202 3.2200425e-06 4.0999046e-07)
(0.001719183 3.242155e-06 4.098496e-07)
(0.001713691 3.3643436e-06 4.4114463e-07)
(0.0017081999 3.7072195e-06 4.7353356e-07)
(0.0016974804 4.4611199e-06 1.8634985e-06)
(0.0095012861 0.00013951169 0.00022248511)
(0.0092133349 0.00022408324 0.00026709763)
(0.0088018509 0.00025700941 0.00025529581)
(0.0083306071 0.00026690691 0.0002382081)
(0.0078754299 0.00026502159 0.00021939836)
(0.0074527063 0.0002529565 0.00019823245)
(0.0070564396 0.00023295893 0.00017634609)
(0.0066827538 0.00020836345 0.0001552305)
(0.006331873 0.00018203353 0.00013558338)
(0.0060047052 0.00015603739 0.00011769036)
(0.0057015056 0.00013180401 0.00010166909)
(0.0054220192 0.00011020724 8.7524314e-05)
(0.0051656909 9.1631899e-05 7.5171986e-05)
(0.0049316845 7.6091185e-05 6.4472618e-05)
(0.0047188814 6.3363141e-05 5.526115e-05)
(0.0045259349 5.310494e-05 4.736682e-05)
(0.0043513547 4.4932756e-05 4.0624899e-05)
(0.0041935865 3.8471358e-05 3.4883033e-05)
(0.0040510752 3.3381245e-05 3.0003996e-05)
(0.0039223115 2.9370508e-05 2.5866182e-05)
(0.0038058643 2.6197262e-05 2.2362868e-05)
(0.0037004012 2.366673e-05 1.9400962e-05)
(0.0036047 2.1625757e-05 1.689961e-05)
(0.0035176529 1.9956327e-05 1.4788823e-05)
(0.0034382652 1.8569047e-05 1.3008104e-05)
(0.0033656513 1.7397361e-05 1.1504744e-05)
(0.0032990266 1.6392002e-05 1.0233524e-05)
(0.0032376995 1.5516239e-05 9.1565333e-06)
(0.0031810636 1.4743885e-05 8.2421101e-06)
(0.0031285885 1.405615e-05 7.4635748e-06)
(0.0030798115 1.3438893e-05 6.7985204e-06)
(0.0030343294 1.2881149e-05 6.228221e-06)
(0.0029917905 1.2374495e-05 5.736982e-06)
(0.0029518882 1.191242e-05 5.3116662e-06)
(0.0029143553 1.148969e-05 4.9413541e-06)
(0.0028789586 1.1101928e-05 4.6170014e-06)
(0.0028454946 1.0745381e-05 4.3311215e-06)
(0.0028137847 1.0416774e-05 4.0775286e-06)
(0.0027836727 1.0113219e-05 3.8511078e-06)
(0.0027550209 9.8321219e-06 3.6476444e-06)
(0.0027277081 9.5711599e-06 3.4636638e-06)
(0.002701627 9.3282489e-06 3.2963e-06)
(0.0026766823 9.1015155e-06 3.1431908e-06)
(0.0026527895 8.8892433e-06 3.0023822e-06)
(0.0026298729 8.6898921e-06 2.8722554e-06)
(0.0026078648 8.5020897e-06 2.7514703e-06)
(0.002586704 8.3246178e-06 2.6389101e-06)
(0.0025663358 8.1563973e-06 2.5336422e-06)
(0.0025467102 7.9964773e-06 2.4348843e-06)
(0.002527782 7.8440285e-06 2.3419787e-06)
(0.0025095101 7.6983387e-06 2.2543614e-06)
(0.0024918566 7.5588108e-06 2.1715437e-06)
(0.0024747871 7.4249007e-06 2.093112e-06)
(0.0024582699 7.2960227e-06 2.0187191e-06)
(0.0024422756 7.1714404e-06 1.9480687e-06)
(0.0024267775 7.0509291e-06 1.8808982e-06)
(0.0024117506 6.9343791e-06 1.8169529e-06)
(0.0023971715 6.821491e-06 1.7560025e-06)
(0.0023830185 6.7119576e-06 1.6978517e-06)
(0.0023692714 6.6055397e-06 1.6423286e-06)
(0.0023559116 6.5020448e-06 1.5892728e-06)
(0.0023429214 6.4013086e-06 1.5385381e-06)
(0.0023302844 6.3031808e-06 1.4899932e-06)
(0.0023179851 6.2075255e-06 1.4435163e-06)
(0.0023060089 6.1142049e-06 1.398994e-06)
(0.0022943424 6.0230691e-06 1.3563259e-06)
(0.0022829727 5.9340588e-06 1.3154163e-06)
(0.0022718877 5.8471293e-06 1.2761704e-06)
(0.002261076 5.762205e-06 1.2385025e-06)
(0.0022505267 5.6791988e-06 1.2023301e-06)
(0.0022402296 5.5980428e-06 1.1675829e-06)
(0.0022301752 5.5186725e-06 1.1341893e-06)
(0.0022203542 5.4410305e-06 1.1020815e-06)
(0.002210758 5.3650644e-06 1.0712e-06)
(0.0022013784 5.2907182e-06 1.0414855e-06)
(0.0021922076 5.2179479e-06 1.0128821e-06)
(0.0021832381 5.1467101e-06 9.8533815e-07)
(0.0021744628 5.0769581e-06 9.5880394e-07)
(0.0021658752 5.0086498e-06 9.3323029e-07)
(0.0021574688 4.9417452e-06 9.0857399e-07)
(0.0021492375 4.8761995e-06 8.847904e-07)
(0.0021411756 4.8119671e-06 8.6183942e-07)
(0.0021332776 4.7489987e-06 8.3967885e-07)
(0.0021255383 4.6872393e-06 8.1827058e-07)
(0.0021179527 4.6266217e-06 7.975767e-07)
(0.0021105161 4.5670678e-06 7.7756023e-07)
(0.0021032242 4.5084822e-06 7.5818437e-07)
(0.0020960727 4.4507555e-06 7.3941082e-07)
(0.0020890577 4.3937735e-06 7.2120289e-07)
(0.0020821756 4.3374542e-06 7.0352103e-07)
(0.002075423 4.2818094e-06 6.863211e-07)
(0.0020687967 4.2271314e-06 6.6956137e-07)
(0.0020622937 4.1743533e-06 6.5320283e-07)
(0.002055911 4.1258144e-06 6.3726188e-07)
(0.0020496453 4.0868301e-06 6.2198553e-07)
(0.0020434926 4.0687781e-06 6.0874736e-07)
(0.0020374483 4.0948769e-06 6.0452164e-07)
(0.0020315149 4.2094249e-06 6.3987779e-07)
(0.0020256647 4.4797482e-06 7.1688443e-07)
(0.0020144539 4.9057757e-06 2.269525e-06)
(0.0094902877 9.6726607e-05 0.00022289229)
(0.00917661 0.00016632333 0.00026788105)
(0.0087449456 0.00019969046 0.00025550648)
(0.0082664657 0.00021101604 0.00023762681)
(0.00781215 0.0002109939 0.0002181603)
(0.0073950862 0.0002028236 0.00019646328)
(0.0070087986 0.00018827265 0.00017418493)
(0.006648835 0.00016968865 0.0001528463)
(0.0063142174 0.00014929332 0.00013312182)
(0.0060045996 0.00012875288 0.0001152379)
(0.0057192201 0.00010923292 9.9256791e-05)
(0.0054570682 9.1490071e-05 8.5148911e-05)
(0.0052170782 7.59234e-05 7.2816212e-05)
(0.0049981259 6.264333e-05 6.2119133e-05)
(0.0047989841 5.1561151e-05 5.2900048e-05)
(0.0046183234 4.2472278e-05 4.4997976e-05)
(0.0044547458 3.5118723e-05 3.8256897e-05)
(0.0043068267 2.9230543e-05 3.2530442e-05)
(0.0041731526 2.4550833e-05 2.768434e-05)
(0.0040523509 2.0849109e-05 2.3597363e-05)
(0.0039431142 1.7926912e-05 2.0161346e-05)
(0.0038442168 1.5618598e-05 1.7280681e-05)
(0.0037545253 1.3789364e-05 1.4871531e-05)
(0.0036730042 1.2331759e-05 1.2860862e-05)
(0.0035987172 1.1161537e-05 1.1185211e-05)
(0.0035308246 1.0213365e-05 9.7889735e-06)
(0.0034685786 9.4380832e-06 8.625072e-06)
(0.0034113173 8.7971271e-06 7.6543155e-06)
(0.0033584589 8.2627192e-06 6.8439393e-06)
(0.0033094933 7.8140805e-06 6.1664546e-06)
(0.0032639753 7.4348229e-06 5.5988452e-06)
(0.0032215172 7.1121282e-06 5.121927e-06)
(0.0031817817 6.836095e-06 4.7197273e-06)
(0.0031444758 6.5990194e-06 4.3789722e-06)
(0.0031093448 6.3947794e-06 4.0886804e-06)
(0.0030761678 6.2184051e-06 3.8397971e-06)
(0.0030447526 6.0657962e-06 3.6248774e-06)
(0.003014932 5.933527e-06 3.4378174e-06)
(0.0029865602 5.8186962e-06 3.2736185e-06)
(0.0029595097 5.7188191e-06 3.1282045e-06)
(0.002933669 5.6317487e-06 2.9982606e-06)
(0.00290894 5.5556254e-06 2.8810975e-06)
(0.0028852364 5.4888247e-06 2.774535e-06)
(0.0028624815 5.4299137e-06 2.6768109e-06)
(0.0028406075 5.3776429e-06 2.5865055e-06)
(0.0028195538 5.3309242e-06 2.5024726e-06)
(0.0027992664 5.2888098e-06 2.4237893e-06)
(0.0027796963 5.2504832e-06 2.3497109e-06)
(0.0027607998 5.2152432e-06 2.2796376e-06)
(0.002742537 5.1824989e-06 2.2130841e-06)
(0.0027248717 5.1517665e-06 2.149654e-06)
(0.0027077708 5.1226689e-06 2.0890223e-06)
(0.0026912041 5.0948973e-06 2.0309197e-06)
(0.0026751435 5.0680875e-06 1.9751354e-06)
(0.0026595636 5.0410673e-06 1.9215394e-06)
(0.0026444411 5.01426e-06 1.8699667e-06)
(0.002629754 4.9880187e-06 1.8202517e-06)
(0.0026154815 4.962074e-06 1.7722795e-06)
(0.0026016045 4.9361418e-06 1.7259603e-06)
(0.0025881054 4.9100858e-06 1.6812144e-06)
(0.0025749674 4.8838322e-06 1.6379643e-06)
(0.002562175 4.8573389e-06 1.5961456e-06)
(0.0025497136 4.8305811e-06 1.5556928e-06)
(0.0025375693 4.8035404e-06 1.5165482e-06)
(0.0025257292 4.776177e-06 1.4786608e-06)
(0.002514181 4.7483858e-06 1.4419859e-06)
(0.0025029134 4.7202764e-06 1.406483e-06)
(0.0024919154 4.6919152e-06 1.372102e-06)
(0.0024811765 4.6632914e-06 1.3387975e-06)
(0.002470687 4.6344016e-06 1.3065287e-06)
(0.0024604377 4.6052681e-06 1.2752601e-06)
(0.0024504197 4.5759098e-06 1.2449532e-06)
(0.0024406247 4.5463468e-06 1.2155757e-06)
(0.0024310448 4.516602e-06 1.1870929e-06)
(0.0024216723 4.4866962e-06 1.1594728e-06)
(0.0024125001 4.4566503e-06 1.1326844e-06)
(0.0024035213 4.4264884e-06 1.1066974e-06)
(0.0023947295 4.3962289e-06 1.0814833e-06)
(0.0023861184 4.3658897e-06 1.0570141e-06)
(0.0023776821 4.3354867e-06 1.0332597e-06)
(0.0023694149 4.3050328e-06 1.0101964e-06)
(0.0023613115 4.2745354e-06 9.8779553e-07)
(0.0023533667 4.2439927e-06 9.6603057e-07)
(0.0023455757 4.2133961e-06 9.4487461e-07)
(0.0023379338 4.1827202e-06 9.2429939e-07)
(0.0023304365 4.1519266e-06 9.0427558e-07)
(0.0023230798 4.1209543e-06 8.8477241e-07)
(0.0023158598 4.0897254e-06 8.6575173e-07)
(0.0023087726 4.0581564e-06 8.4717292e-07)
(0.002301815 4.0261901e-06 8.2897974e-07)
(0.0022949838 3.9938744e-06 8.1110751e-07)
(0.0022882766 3.9615294e-06 7.9346205e-07)
(0.002281691 3.9300788e-06 7.7594275e-07)
(0.0022752261 3.9016919e-06 7.5847826e-07)
(0.002268882 3.880941e-06 7.4124653e-07)
(0.0022626608 3.8766483e-06 7.2572633e-07)
(0.0022565686 3.9043043e-06 7.1957867e-07)
(0.0022506189 3.9866544e-06 7.5579863e-07)
(0.0022447715 4.1390988e-06 8.4931787e-07)
(0.002233564 4.2832241e-06 2.4122113e-06)
(0.0094843561 6.6886585e-05 0.00022303624)
(0.0091549219 0.00011904886 0.00026838771)
(0.0087072816 0.00014772497 0.00025588053)
(0.0082191888 0.00015892952 0.00023765677)
(0.0077602858 0.00016026049 0.00021787143)
(0.0073412804 0.00015505102 0.00019586613)
(0.0069552494 0.00014481701 0.00017327438)
(0.0065978366 0.00013121474 0.00015165024)
(0.0062677954 0.00011592881 0.00013169211)
(0.0059642872 0.00010028521 0.0001136244)
(0.0056860598 8.5214431e-05 9.7497522e-05)
(0.0054316726 7.1330407e-05 8.3272195e-05)
(0.0051997008 5.8984298e-05 7.0844884e-05)
(0.0049887459 4.8311753e-05 6.0073372e-05)
(0.0047973943 3.9291582e-05 5.079889e-05)
(0.0046242055 3.1804354e-05 4.2859902e-05)
(0.0044677269 2.5679086e-05 3.6099808e-05)
(0.0043265179 2.0725786e-05 3.0371291e-05)
(0.0041991724 1.6756343e-05 2.5538702e-05)
(0.004084339 1.3596837e-05 2.1479083e-05)
(0.0039807371 1.1093752e-05 1.8082323e-05)
(0.0038871692 9.1161627e-06 1.525079e-05)
(0.0038025288 7.5553794e-06 1.2898647e-05)
(0.003725804 6.323134e-06 1.0950986e-05)
(0.0036560786 5.3488179e-06 9.3426783e-06)
(0.0035925304 4.5751807e-06 8.0166128e-06)
(0.0035344253 3.9621003e-06 6.9239483e-06)
(0.0034811131 3.4726277e-06 6.0250732e-06)
(0.0034320221 3.0815198e-06 5.2862638e-06)
(0.0033866501 2.7702763e-06 4.6792109e-06)
(0.0033445586 2.5236721e-06 4.1805213e-06)
(0.0033053662 2.3295847e-06 3.7707523e-06)
(0.0032687419 2.1784957e-06 3.4337444e-06)
(0.0032343982 2.0629038e-06 3.1561106e-06)
(0.0032020863 1.9768091e-06 2.9267967e-06)
(0.0031715907 1.9153177e-06 2.7367038e-06)
(0.0031427248 1.8743797e-06 2.5783553e-06)
(0.0031153267 1.8506054e-06 2.4456296e-06)
(0.0030892563 1.8411239e-06 2.3335229e-06)
(0.0030643915 1.843498e-06 2.2379668e-06)
(0.003040626 1.8556441e-06 2.1556636e-06)
(0.0030178671 1.8757798e-06 2.0839518e-06)
(0.0029960335 1.9023812e-06 2.020694e-06)
(0.0029750538 1.9341342e-06 1.9641813e-06)
(0.0029548649 1.9699151e-06 1.9130517e-06)
(0.0029354109 2.0087631e-06 1.8662271e-06)
(0.0029166424 2.0498592e-06 1.822852e-06)
(0.0028985148 2.0925101e-06 1.7822567e-06)
(0.0028809886 2.1361388e-06 1.7439142e-06)
(0.0028640277 2.1802718e-06 1.70741e-06)
(0.0028476 2.2245513e-06 1.6724145e-06)
(0.0028316758 2.2687626e-06 1.6386554e-06)
(0.0028162284 2.3128958e-06 1.6058713e-06)
(0.0028012324 2.3570814e-06 1.5738219e-06)
(0.0027866658 2.3978732e-06 1.5431875e-06)
(0.0027725089 2.4362351e-06 1.5136877e-06)
(0.0027587418 2.4734392e-06 1.4848886e-06)
(0.002745346 2.5095349e-06 1.4567004e-06)
(0.002732305 2.5443509e-06 1.4291155e-06)
(0.0027196032 2.5777725e-06 1.402111e-06)
(0.0027072261 2.6097248e-06 1.3756634e-06)
(0.0026951602 2.6401661e-06 1.3497562e-06)
(0.0026833928 2.6690891e-06 1.3243746e-06)
(0.0026719116 2.6965067e-06 1.2995089e-06)
(0.0026607054 2.7223744e-06 1.2751532e-06)
(0.0026497635 2.7463566e-06 1.2513137e-06)
(0.002639076 2.7689094e-06 1.2279778e-06)
(0.0026286333 2.7901475e-06 1.2051287e-06)
(0.0026184262 2.8099939e-06 1.182761e-06)
(0.0026084461 2.8284322e-06 1.1608699e-06)
(0.0025986849 2.845493e-06 1.1394489e-06)
(0.0025891348 2.8612189e-06 1.1184901e-06)
(0.0025797885 2.8756499e-06 1.0979861e-06)
(0.002570639 2.8888306e-06 1.077928e-06)
(0.0025616795 2.9008057e-06 1.0583091e-06)
(0.0025529038 2.9116199e-06 1.0391189e-06)
(0.0025443058 2.9213137e-06 1.020349e-06)
(0.0025358796 2.9299292e-06 1.0019896e-06)
(0.0025276198 2.9375066e-06 9.8403252e-07)
(0.002519521 2.9440789e-06 9.6646491e-07)
(0.0025115783 2.9496799e-06 9.4927925e-07)
(0.0025037869 2.9543371e-06 9.3246172e-07)
(0.0024961421 2.9580678e-06 9.1600018e-07)
(0.0024886396 2.9608815e-06 8.9988032e-07)
(0.0024812752 2.962772e-06 8.8408521e-07)
(0.002474045 2.9637214e-06 8.6859496e-07)
(0.0024669452 2.9636878e-06 8.5338235e-07)
(0.0024599723 2.9626134e-06 8.3841418e-07)
(0.0024531231 2.9604299e-06 8.2364393e-07)
(0.0024463945 2.9570955e-06 8.0900397e-07)
(0.0024397839 2.95265e-06 7.943988e-07)
(0.0024332894 2.9473508e-06 7.796939e-07)
(0.0024269099 2.9419134e-06 7.6470877e-07)
(0.0024206457 2.9379214e-06 7.4925931e-07)
(0.0024144993 2.9384193e-06 7.3336496e-07)
(0.0024084767 2.9484955e-06 7.1826455e-07)
(0.0024025877 2.9751252e-06 7.1113208e-07)
(0.002396846 3.0234608e-06 7.4331234e-07)
(0.0023911946 3.0808291e-06 8.3046579e-07)
(0.0023803644 3.0574248e-06 2.2999434e-06)
(0.0094810492 4.4090135e-05 0.00022308885)
(0.0091422796 7.9975481e-05 0.00026874495)
(0.0086839084 0.00010160921 0.00025628771)
(0.0081880903 0.00011101591 0.00023793456)
(0.0077246858 0.00011275118 0.00021798622)
(0.0073029895 0.00010953687 0.00019578738)
(0.0069155191 0.00010266029 0.00017296032)
(0.0065579578 9.3267236e-05 0.0001510852)
(0.006229001 8.2539593e-05 0.00013089045)
(0.005927585 7.1446831e-05 0.00011261412)
(0.0056522063 6.0673359e-05 9.6309239e-05)
(0.0054012005 5.0670807e-05 8.1936268e-05)
(0.0051729477 4.1706609e-05 6.9390832e-05)
(0.004965887 3.3898116e-05 5.8529098e-05)
(0.0047784814 2.7249953e-05 4.9189879e-05)
(0.0046092054 2.1693074e-05 4.1208774e-05)
(0.0044565535 1.7117437e-05 3.4426144e-05)
(0.0043190553 1.3395519e-05 2.8691659e-05)
(0.0041952917 1.0397812e-05 2.3866804e-05)
(0.0040839086 8.002331e-06 1.9826011e-05)
(0.0039836292 6.0997705e-06 1.645686e-05)
(0.0038932634 4.5956625e-06 1.3659715e-05)
(0.0038117126 3.410672e-06 1.1347012e-05)
(0.0037379734 2.4799283e-06 9.4422915e-06)
(0.0036711359 1.7515113e-06 7.8790891e-06)
(0.0036103859 1.1749058e-06 6.6010323e-06)
(0.0035549935 7.2234083e-07 5.5561207e-06)
(0.0035043108 3.7342571e-07 4.7060703e-06)
(0.0034577717 1.0569711e-07 4.0163449e-06)
(0.0034148763 -9.9088965e-08 3.4574134e-06)
(0.0033751872 -2.5333639e-07 3.0054955e-06)
(0.0033383243 -3.6640091e-07 2.6409743e-06)
(0.0033039576 -4.4577918e-07 2.3475733e-06)
(0.0032718009 -4.97485e-07 2.1118263e-06)
(0.0032416065 -5.2634549e-07 1.922641e-06)
(0.0032131599 -5.3630927e-07 1.7709153e-06)
(0.0031862758 -5.3063978e-07 1.6492026e-06)
(0.0031607936 -5.1206219e-07 1.551441e-06)
(0.0031365743 -4.8287307e-07 1.4727099e-06)
(0.0031134976 -4.4500918e-07 1.4090322e-06)
(0.0030914586 -4.001121e-07 1.3572048e-06)
(0.0030703663 -3.495797e-07 1.3146566e-06)
(0.0030501409 -2.9459613e-07 1.2793303e-06)
(0.0030307129 -2.3616883e-07 1.2495916e-06)
(0.0030120207 -1.7516629e-07 1.2241404e-06)
(0.0029940105 -1.1232117e-07 1.2019538e-06)
(0.0029766343 -4.8267253e-08 1.1822243e-06)
(0.0029598495 1.6450078e-08 1.1643218e-06)
(0.0029436181 8.1356018e-08 1.1477525e-06)
(0.002927906 1.4602503e-07 1.132125e-06)
(0.0029126825 2.1005916e-07 1.1171187e-06)
(0.0028979201 2.7305096e-07 1.1024394e-06)
(0.0028835935 3.3454395e-07 1.0876597e-06)
(0.0028696773 3.9432596e-07 1.072202e-06)
(0.0028561514 4.5705092e-07 1.0590085e-06)
(0.0028429997 5.2060108e-07 1.0472577e-06)
(0.0028302035 5.8225302e-07 1.0356085e-06)
(0.0028177449 6.4163883e-07 1.0238013e-06)
(0.0028056084 6.9901941e-07 1.0118738e-06)
(0.0027937799 7.5456166e-07 9.9986786e-07)
(0.0027822461 8.0835163e-07 9.8780977e-07)
(0.0027709946 8.6046899e-07 9.757177e-07)
(0.0027600137 9.1102715e-07 9.6360208e-07)
(0.0027492926 9.6019877e-07 9.5144718e-07)
(0.0027388207 1.0080077e-06 9.3926638e-07)
(0.0027285887 1.0528511e-06 9.2746602e-07)
(0.0027185878 1.0958675e-06 9.1582976e-07)
(0.0027088089 1.1375006e-06 9.0425377e-07)
(0.0026992438 1.1777666e-06 8.9275923e-07)
(0.0026898847 1.2166574e-06 8.8136662e-07)
(0.0026807244 1.2541695e-06 8.7007985e-07)
(0.0026717559 1.2903139e-06 8.5890609e-07)
(0.0026629726 1.3251083e-06 8.4785152e-07)
(0.0026543682 1.3585744e-06 8.3692157e-07)
(0.0026459367 1.3907406e-06 8.2612213e-07)
(0.0026376723 1.4216365e-06 8.1545359e-07)
(0.0026295698 1.4512899e-06 8.0491959e-07)
(0.0026216238 1.4797317e-06 7.9452265e-07)
(0.0026138294 1.5069909e-06 7.842625e-07)
(0.002606182 1.5330936e-06 7.7413972e-07)
(0.0025986769 1.5580639e-06 7.6415221e-07)
(0.0025913099 1.5819211e-06 7.5429504e-07)
(0.0025840769 1.6046813e-06 7.4456431e-07)
(0.0025769739 1.6263493e-06 7.349534e-07)