/*--------------------------------*- C++ -*----------------------------------*\
  =========                 |
  \\      /  F ield         | OpenFOAM: The Open Source CFD Toolbox
   \\    /   O peration     | Website:  https://openfoam.org
    \\  /    A nd           | Version:  7
     \\/     M anipulation  |
\*---------------------------------------------------------------------------*/
FoamFile
{
    version     2.0;
    format      ascii;
    class       surfaceScalarField;
    location    "2350/water";
    object      phi;
}
// * * * * * * * * * * * * * * * * * * * * * * * * * * * * * * * * * * * * * //

dimensions      [1 0 -1 0 0 0 0];

internalField   nonuniform List<scalar> 
156660
(
9.9057239e-05
6.0010402e-06
6.0528092e-06
8.6847498e-05
6.0555113e-06
6.1542307e-06
7.5687891e-05
5.5111363e-06
5.6484701e-06
6.5441704e-05
5.0404181e-06
5.2057689e-06
5.6267661e-05
4.4956436e-06
4.6783991e-06
4.8318019e-05
3.8797648e-06
4.0698777e-06
4.1624776e-05
3.2524449e-06
3.4407982e-06
3.6124897e-05
2.660462e-06
2.839417e-06
3.1692235e-05
2.1345127e-06
2.2981489e-06
2.8162841e-05
1.6926975e-06
1.8366964e-06
2.5361437e-05
1.3399933e-06
1.4614113e-06
2.3124664e-05
1.0698477e-06
1.1669256e-06
2.1315127e-05
8.6875418e-07
9.4078223e-07
1.9825714e-05
7.2110064e-07
7.6831272e-07
1.8577278e-05
6.1248241e-07
6.3595304e-07
1.7513255e-05
5.3125217e-07
5.3277147e-07
1.6593744e-05
4.6879723e-07
4.5071347e-07
1.5790433e-05
4.1913718e-07
3.8417386e-07
1.5082784e-05
3.782907e-07
3.2935847e-07
1.4455417e-05
3.4367127e-07
2.8369563e-07
1.3896409e-05
3.1361409e-07
2.4539335e-07
1.339622e-05
2.870445e-07
2.1314452e-07
1.2947015e-05
2.6326033e-07
1.859451e-07
1.2542237e-05
2.4179365e-07
1.629846e-07
1.2176318e-05
2.223221e-07
1.4359691e-07
1.1844484e-05
2.046148e-07
1.2721883e-07
1.1542609e-05
1.8849497e-07
1.1337976e-07
1.1267116e-05
1.7381573e-07
1.0167794e-07
1.1014892e-05
1.6046272e-07
9.1760824e-08
1.0783252e-05
1.4833969e-07
8.3300582e-08
1.0569851e-05
1.3734904e-07
7.6052121e-08
1.0372614e-05
1.2738863e-07
6.9848321e-08
1.0189731e-05
1.1836808e-07
6.4514813e-08
1.001963e-05
1.1020449e-07
5.9896627e-08
9.8609388e-06
1.0281924e-07
5.5871644e-08
9.7124595e-06
9.6137967e-08
5.2341366e-08
9.573144e-06
9.0091187e-08
4.9224371e-08
9.4420759e-06
8.4614476e-08
4.6453579e-08
9.3184531e-06
7.9648655e-08
4.3974124e-08
9.2015723e-06
7.5139705e-08
4.1741081e-08
9.0908166e-06
7.1038138e-08
3.9717569e-08
8.9856432e-06
6.7301119e-08
3.7872315e-08
8.8855708e-06
6.3894246e-08
3.6178142e-08
8.7901757e-06
6.0780109e-08
3.461494e-08
8.6990829e-06
5.7926181e-08
3.3166644e-08
8.6119591e-06
5.5303733e-08
3.1820152e-08
8.5285072e-06
5.2887453e-08
3.0564446e-08
8.4484619e-06
5.0655055e-08
2.9390284e-08
8.3715848e-06
4.8587065e-08
2.8290012e-08
8.2976614e-06
4.6666181e-08
2.7257196e-08
8.2264975e-06
4.4877484e-08
2.6286413e-08
8.1579202e-06
4.3208771e-08
2.5368535e-08
8.0917731e-06
4.1649032e-08
2.4498051e-08
8.0279108e-06
4.0186968e-08
2.3675393e-08
7.9662006e-06
3.8812661e-08
2.2897526e-08
7.9065219e-06
3.7518403e-08
2.2160251e-08
7.8487639e-06
3.6297858e-08
2.1460156e-08
7.7928242e-06
3.5145153e-08
2.0794594e-08
7.7386083e-06
3.405467e-08
2.0161152e-08
7.6860293e-06
3.302136e-08
1.955768e-08
7.6350063e-06
3.2040816e-08
1.8982247e-08
7.5854641e-06
3.1109075e-08
1.8433084e-08
7.5373331e-06
3.0222629e-08
1.7908491e-08
7.4905478e-06
2.9378239e-08
1.740699e-08
7.4450476e-06
2.857301e-08
1.6927182e-08
7.4007756e-06
2.7804222e-08
1.6467794e-08
7.3576783e-06
2.7069583e-08
1.6027639e-08
7.3157056e-06
2.6367041e-08
1.5605609e-08
7.2748103e-06
2.5694683e-08
1.5200682e-08
7.2349479e-06
2.5050562e-08
1.4811824e-08
7.1960767e-06
2.4433089e-08
1.4438199e-08
7.1581571e-06
2.3840675e-08
1.4078944e-08
7.1211519e-06
2.3271928e-08
1.3733292e-08
7.0850258e-06
2.2725498e-08
1.3400512e-08
7.0497457e-06
2.2200172e-08
1.3079942e-08
7.0152798e-06
2.1694926e-08
1.2770845e-08
6.9815985e-06
2.1208603e-08
1.2472763e-08
6.9486733e-06
2.0740249e-08
1.2184928e-08
6.9164775e-06
2.0288961e-08
1.1906773e-08
6.8849857e-06
1.985395e-08
1.1637828e-08
6.8541739e-06
1.9434365e-08
1.1377487e-08
6.8240194e-06
1.9029466e-08
1.1125113e-08
6.7945006e-06
1.8638502e-08
1.0880244e-08
6.7655976e-06
1.8260757e-08
1.0642292e-08
6.7372913e-06
1.7895571e-08
1.041075e-08
6.7095641e-06
1.75421e-08
1.0185071e-08
6.6823996e-06
1.7199605e-08
9.9648611e-09
6.6557825e-06
1.6867261e-08
9.7498314e-09
6.6296983e-06
1.6544113e-08
9.5399882e-09
6.6041331e-06
1.622926e-08
9.3360313e-09
6.5790715e-06
1.5921971e-08
9.1397028e-09
6.554494e-06
1.5622315e-08
8.9550935e-09
6.5303708e-06
1.5332566e-08
8.7906621e-09
6.5066467e-06
1.5060452e-08
8.6635917e-09
6.4832094e-06
1.4827816e-08
8.6095187e-09
6.4598103e-06
1.4693075e-08
8.7060343e-09
6.4358388e-06
1.4826388e-08
9.1451389e-09
6.4096303e-06
1.5741745e-08
1.0466739e-08
6.3782855e-06
1.8026552e-08
1.3318229e-08
3.2300211e-08
2.7923544e-08
0.00010646494
4.1872385e-06
6.4599816e-06
0.0001002019
5.695418e-06
6.6231353e-06
9.3659588e-05
5.7790389e-06
6.2744098e-06
8.7011589e-05
5.6514782e-06
6.0369387e-06
8.0422927e-05
5.3669119e-06
5.7173941e-06
7.4094022e-05
4.9022832e-06
5.3063862e-06
6.8167026e-05
4.3278135e-06
4.8516272e-06
6.2722565e-05
3.717891e-06
4.387032e-06
5.7799049e-05
3.1243144e-06
3.9337145e-06
5.3403345e-05
2.5820688e-06
3.5063329e-06
4.9517402e-05
2.1121062e-06
3.1138299e-06
4.6105483e-05
1.7220197e-06
2.7597473e-06
4.3121558e-05
1.4089355e-06
2.4437429e-06
4.0515558e-05
1.1637552e-06
2.163346e-06
3.8237948e-05
9.7485851e-07
1.9152336e-06
3.6242683e-05
8.3055973e-07
1.6959573e-06
3.4488759e-05
7.2043695e-07
1.5022849e-06
3.2940716e-05
6.3586294e-07
1.3313172e-06
3.1568463e-05
5.7005001e-07
1.180493e-06
3.0346733e-05
5.1784898e-07
1.0475522e-06
2.9254398e-05
4.7545955e-07
9.3049033e-07
2.8273782e-05
4.4013958e-07
8.2752024e-07
2.7390054e-05
4.0994891e-07
7.3704009e-07
2.6590699e-05
3.8353956e-07
6.5760857e-07
2.5865102e-05
3.5998891e-07
5.8793072e-07
2.5204198e-05
3.3867632e-07
5.2684263e-07
2.4600205e-05
3.1918358e-07
4.7330351e-07
2.4046429e-05
3.0120194e-07
4.2639017e-07
2.3537073e-05
2.8455205e-07
3.8526717e-07
2.3067119e-05
2.6911101e-07
3.491824e-07
2.2632208e-05
2.5478165e-07
3.1747783e-07
2.2228528e-05
2.4147381e-07
2.8959533e-07
2.1852744e-05
2.2911072e-07
2.6504122e-07
2.1501947e-05
2.1762894e-07
2.4337258e-07
2.1173591e-05
2.0696955e-07
2.2420571e-07
2.0865445e-05
1.9707567e-07
2.0720864e-07
2.0575549e-05
1.8789253e-07
1.9209396e-07
2.0302183e-05
1.7936722e-07
1.7861343e-07
2.0043829e-05
1.7144909e-07
1.6655324e-07
1.979915e-05
1.6408984e-07
1.5572944e-07
1.956696e-05
1.572438e-07
1.45984e-07
1.934621e-05
1.5086896e-07
1.3718216e-07
1.9135969e-05
1.4492652e-07
1.2920881e-07
1.8935407e-05
1.3937904e-07
1.2196307e-07
1.8743783e-05
1.341923e-07
1.1535763e-07
1.8560435e-05
1.2933508e-07
1.0931729e-07
1.8384766e-05
1.2477907e-07
1.0377716e-07
1.8216241e-05
1.2049848e-07
9.8681305e-08
1.8054377e-05
1.1647013e-07
9.3981307e-08
1.7898734e-05
1.1267294e-07
8.9635432e-08
1.7748917e-05
1.0908824e-07
8.5606976e-08
1.7604563e-05
1.0570003e-07
8.1862429e-08
1.7465345e-05
1.024934e-07
7.8373264e-08
1.7330962e-05
9.9452974e-08
7.5117023e-08
1.7201138e-05
9.6564387e-08
7.2072753e-08
1.7075619e-05
9.3816662e-08
6.9221159e-08
1.695417e-05
9.120111e-08
6.6545114e-08
1.6836577e-05
8.870912e-08
6.402957e-08
1.6722638e-05
8.6331968e-08
6.1661076e-08
1.661217e-05
8.4061762e-08
5.9427701e-08
1.6505001e-05
8.1891561e-08
5.7318783e-08
1.640097e-05
7.9814935e-08
5.5324818e-08
1.6299929e-05
7.7826181e-08
5.3437113e-08
1.620174e-05
7.5919903e-08
5.164792e-08
1.6106272e-05
7.4091046e-08
4.9950154e-08
1.6013404e-05
7.2334996e-08
4.8337358e-08
1.5923022e-05
7.064771e-08
4.6803864e-08
1.5835019e-05
6.9025708e-08
4.5344286e-08
1.5749294e-05
6.7465512e-08
4.3953688e-08
1.5665753e-05
6.5963751e-08
4.2627703e-08
1.5584307e-05
6.4517335e-08
4.1362178e-08
1.5504871e-05
6.3123411e-08
4.0153356e-08
1.5427366e-05
6.1779302e-08
3.8997785e-08
1.5351716e-05
6.0482509e-08
3.789226e-08
1.5277852e-05
5.9230802e-08
3.683383e-08
1.5205705e-05
5.8021975e-08
3.5819694e-08
1.5135212e-05
5.6853997e-08
3.4847366e-08
1.5066313e-05
5.5724971e-08
3.3914348e-08
1.499895e-05
5.4633103e-08
3.3018411e-08
1.493307e-05
5.3576733e-08
3.215743e-08
1.4868621e-05
5.255417e-08
3.1329415e-08
1.4805554e-05
5.1563915e-08
3.0532431e-08
1.4743823e-05
5.0604472e-08
2.9764679e-08
1.4683386e-05
4.9674255e-08
2.9024349e-08
1.4624199e-05
4.8771805e-08
2.8309847e-08
1.4566226e-05
4.7895478e-08
2.7619578e-08
1.4509431e-05
4.7043481e-08
2.6951968e-08
1.4453778e-05
4.6214086e-08
2.6305766e-08
1.4399237e-05
4.5405401e-08
2.567989e-08
1.4345777e-05
4.4615671e-08
2.5073796e-08
1.4293367e-05
4.3844242e-08
2.4487727e-08
1.4241972e-05
4.3092861e-08
2.3923746e-08
1.4191548e-05
4.2369876e-08
2.3387158e-08
1.4142019e-05
4.1699318e-08
2.2889616e-08
1.4093249e-05
4.1141616e-08
2.2456578e-08
1.4044951e-05
4.0844652e-08
2.2146553e-08
1.3996485e-05
4.1169207e-08
2.212304e-08
1.3946229e-05
4.3012301e-08
2.2985415e-08
1.389015e-05
4.8540231e-08
2.5565795e-08
6.328155e-08
5.0000872e-08
0.00010603565
2.7876425e-06
6.4750379e-06
0.00010074799
4.4145413e-06
6.5685292e-06
9.5493515e-05
4.8594028e-06
6.1741158e-06
9.0256432e-05
4.930369e-06
5.9581921e-06
8.5101366e-05
4.8311767e-06
5.6908012e-06
8.0102875e-05
4.5561761e-06
5.3445981e-06
7.5322251e-05
4.1469521e-06
4.9614853e-06
7.0803266e-05
3.6678926e-06
4.5689837e-06
6.6576264e-05
3.1701903e-06
4.1811254e-06
6.2660725e-05
2.6900109e-06
3.8075975e-06
5.9065443e-05
2.2519319e-06
3.4554566e-06
5.5788936e-05
1.8697304e-06
3.1287958e-06
5.2820978e-05
1.5477473e-06
2.8291458e-06
5.014479e-05
1.2836302e-06
2.5563139e-06
4.7739304e-05
1.07123e-06
2.3091141e-06
4.5581183e-05
9.0281505e-07
2.0858661e-06
4.3646423e-05
7.704878e-07
1.884709e-06
4.1911533e-05
6.6697371e-07
1.7037792e-06
4.0354306e-05
5.8598198e-07
1.541295e-06
3.8954268e-05
5.2230223e-07
1.3955849e-06
3.769288e-05
4.7175606e-07
1.265091e-06
3.6553576e-05
4.3107986e-07
1.1483634e-06
3.552169e-05
3.9778209e-07
1.0440533e-06
3.4584322e-05
3.6999886e-07
9.5090831e-07
3.3730181e-05
3.4635985e-07
8.6777019e-07
3.2949411e-05
3.258776e-07
7.9356871e-07
3.223342e-05
3.0784049e-07
7.2733489e-07
3.1574711e-05
2.9172984e-07
6.6818105e-07
3.0966769e-05
2.7719265e-07
6.153013e-07
3.0403928e-05
2.63981e-07
5.6797021e-07
2.9881258e-05
2.5190845e-07
5.2554317e-07
2.9394455e-05
2.4082711e-07
4.8745e-07
2.8939761e-05
2.306216e-07
4.5318327e-07
2.8513895e-05
2.2120152e-07
4.2229386e-07
2.8113985e-05
2.1249197e-07
3.9438673e-07
2.7737518e-05
2.0442798e-07
3.691149e-07
2.7382285e-05
1.9695191e-07
3.4617383e-07
2.7046344e-05
1.9001179e-07
3.252968e-07
2.6727982e-05
1.8355994e-07
3.0625044e-07
2.6425689e-05
1.7755274e-07
2.8883085e-07
2.6138123e-05
1.7195005e-07
2.7285986e-07
2.5864094e-05
1.6671516e-07
2.5818184e-07
2.5602546e-05
1.6181454e-07
2.4466091e-07
2.535253e-05
1.5721707e-07
2.3217769e-07
2.51132e-05
1.5289439e-07
2.2062728e-07
2.4883797e-05
1.4882095e-07
2.0991773e-07
2.4663634e-05
1.4497366e-07
1.9996812e-07
2.4452094e-05
1.4133181e-07
1.9070706e-07
2.4248615e-05
1.3787697e-07
1.8207152e-07
2.405269e-05
1.3459268e-07
1.7400569e-07
2.3863854e-05
1.3146461e-07
1.6645987e-07
2.3681684e-05
1.2848058e-07
1.5938925e-07
2.3505794e-05
1.2562919e-07
1.5275411e-07
2.3335829e-05
1.2289869e-07
1.4651969e-07
2.3171462e-05
1.2027637e-07
1.4065462e-07
2.3012394e-05
1.1775474e-07
1.351302e-07
2.2858345e-05
1.153297e-07
1.2992043e-07
2.2709057e-05
1.1299534e-07
1.2500173e-07
2.2564291e-05
1.1074516e-07
1.203529e-07
2.2423824e-05
1.0857347e-07
1.1595459e-07
2.2287451e-05
1.064755e-07
1.1178921e-07
2.2154978e-05
1.0444701e-07
1.078408e-07
2.2026226e-05
1.0248421e-07
1.0409458e-07
2.1901025e-05
1.005835e-07
1.0053714e-07
2.1779218e-05
9.8741536e-08
9.7156144e-08
2.1660658e-05
9.6954884e-08
9.3940281e-08
2.1545205e-05
9.5221267e-08
9.0879059e-08
2.1432729e-05
9.3538803e-08
8.7962804e-08
2.1323107e-05
9.1905302e-08
8.5182605e-08
2.1216222e-05
9.0318488e-08
8.2530191e-08
2.1111965e-05
8.8776389e-08
7.9997895e-08
2.1010233e-05
8.7277101e-08
7.7578655e-08
2.0910927e-05
8.5818941e-08
7.5265884e-08
2.0813956e-05
8.4400303e-08
7.3053423e-08
2.0719232e-05
8.3019703e-08
7.093562e-08
2.0626671e-05
8.1675622e-08
6.890717e-08
2.0536195e-05
8.0366818e-08
6.696313e-08
2.0447729e-05
7.9091931e-08
6.5098745e-08
2.0361203e-05
7.7849823e-08
6.3309773e-08
2.0276548e-05
7.6639229e-08
6.1592052e-08
2.0193702e-05
7.5458994e-08
5.9941726e-08
2.0112602e-05
7.4307935e-08
5.8355205e-08
2.0033193e-05
7.3184899e-08
5.6829054e-08
1.9955419e-05
7.2088606e-08
5.5359966e-08
1.9879228e-05
7.1017613e-08
5.3944838e-08
1.9804572e-05
6.9970421e-08
5.2580755e-08
1.9731406e-05
6.8945216e-08
5.1264806e-08
1.9659685e-05
6.7940116e-08
4.9994415e-08
1.9589371e-05
6.6953009e-08
4.8767041e-08
1.9520423e-05
6.5982337e-08
4.7580528e-08
1.9452807e-05
6.502804e-08
4.6433094e-08
1.9386482e-05
6.4094136e-08
4.5323724e-08
1.9321404e-05
6.3194671e-08
4.4253079e-08
1.9257511e-05
6.23663e-08
4.3225232e-08
1.9194705e-05
6.1695161e-08
4.2253125e-08
1.9132798e-05
6.137408e-08
4.1377377e-08
1.9071394e-05
6.1822412e-08
4.0750665e-08
1.9009424e-05
6.3924738e-08
4.1057612e-08
1.8944661e-05
6.9304673e-08
4.3998853e-08
7.9170939e-08
7.4661559e-08
0.0001054937
1.9169871e-06
6.4880406e-06
0.00010005365
3.2729596e-06
6.5816334e-06
9.4926077e-05
3.8288995e-06
6.1580776e-06
8.9946373e-05
3.9838109e-06
5.9262629e-06
8.5163276e-05
3.9595077e-06
5.6547657e-06
8.0619137e-05
3.7899369e-06
5.3103784e-06
7.6329462e-05
3.5015547e-06
4.9350725e-06
7.230016e-05
3.1412013e-06
4.5559928e-06
6.8534206e-05
2.7514802e-06
4.1846641e-06
6.5032983e-05
2.3633493e-06
3.8278852e-06
6.1795789e-05
1.9984143e-06
3.490711e-06
5.8818843e-05
1.6703759e-06
3.176301e-06
5.6094718e-05
1.3858295e-06
2.886043e-06
5.3612488e-05
1.1457945e-06
2.6200649e-06
5.1358373e-05
9.4764118e-07
2.3777043e-06
4.9316593e-05
7.8676785e-07
2.1578272e-06
4.7470246e-05
6.5779548e-07
1.9590391e-06
4.5802069e-05
5.5532544e-07
1.7798252e-06
4.4295042e-05
4.7437114e-07
1.6186378e-06
4.293283e-05
4.105667e-07
1.473948e-06
4.1700078e-05
3.6023238e-07
1.3442759e-06
4.0582591e-05
3.2035744e-07
1.2282094e-06
3.956742e-05
2.8853738e-07
1.1244154e-06
3.8642881e-05
2.6289068e-07
1.0316467e-06
3.7798527e-05
2.4196986e-07
9.4874398e-07
3.7025076e-05
2.2467704e-07
8.7465168e-07
3.6314324e-05
2.1018902e-07
8.084041e-07
3.5659057e-05
1.9788604e-07
7.4911045e-07
3.5052961e-05
1.8731581e-07
6.9597282e-07
3.449052e-05
1.781487e-07
6.4827381e-07
3.3966922e-05
1.7013168e-07
6.0537441e-07
3.3477973e-05
1.6306726e-07
5.6670868e-07
3.3020016e-05
1.5680296e-07
5.3177542e-07
3.2589865e-05
1.5122056e-07
5.0013242e-07
3.218474e-05
1.4622562e-07
4.7139135e-07
3.1802215e-05
1.4174073e-07
4.4521231e-07
3.1440168e-05
1.3770097e-07
4.212981e-07
3.1096739e-05
1.3405097e-07
3.9938921e-07
3.0770297e-05
1.3074291e-07
3.7925953e-07
3.0459402e-05
1.2773518e-07
3.6071194e-07
3.0162787e-05
1.2499091e-07
3.4357478e-07
2.9879325e-05
1.2247787e-07
3.276985e-07
2.960802e-05
1.2016734e-07
3.1295272e-07
2.934798e-05
1.1803383e-07
2.9922356e-07
2.9098408e-05
1.1605463e-07
2.8641139e-07
2.885859e-05
1.1420982e-07
2.7442907e-07
2.8627882e-05
1.124819e-07
2.632e-07
2.8405701e-05
1.1085556e-07
2.5265686e-07
2.819152e-05
1.0931756e-07
2.4274022e-07
2.7984859e-05
1.078565e-07
2.3339755e-07
2.7785279e-05
1.0646278e-07
2.2458212e-07
2.7592378e-05
1.0512873e-07
2.1625215e-07
2.740579e-05
1.0384735e-07
2.0837035e-07
2.7225174e-05
1.0261119e-07
2.0090362e-07
2.705022e-05
1.0140746e-07
1.9382258e-07
2.6880641e-05
1.0023383e-07
1.871004e-07
2.6716166e-05
9.909235e-08
1.807122e-07
2.6556546e-05
9.7979989e-08
1.7463556e-07
2.6401548e-05
9.6892528e-08
1.6885017e-07
2.6250957e-05
9.5827102e-08
1.6333742e-07
2.610457e-05
9.4781698e-08
1.5808041e-07
2.5962199e-05
9.3754711e-08
1.530636e-07
2.5823666e-05
9.2744873e-08
1.482726e-07
2.5688804e-05
9.1750976e-08
1.4369414e-07
2.5557458e-05
9.0771743e-08
1.3931598e-07
2.5429481e-05
8.9805163e-08
1.3512693e-07
2.5304734e-05
8.8851478e-08
1.3111645e-07
2.5183087e-05
8.7911167e-08
1.2727468e-07
2.5064416e-05
8.6983892e-08
1.2359242e-07
2.4948604e-05
8.60689e-08
1.2006122e-07
2.4835542e-05
8.5165788e-08
1.1667302e-07
2.4725124e-05
8.4274333e-08
1.1342048e-07
2.4617252e-05
8.3394298e-08
1.1029658e-07
2.4511833e-05
8.2525474e-08
1.072948e-07
2.4408775e-05
8.1667739e-08
1.0440896e-07
2.4307997e-05
8.0820981e-08
1.0163343e-07
2.4209416e-05
7.998499e-08
9.8962652e-08
2.4112956e-05
7.9159716e-08
9.639156e-08
2.4018546e-05
7.834502e-08
9.3915308e-08
2.3926115e-05
7.7540686e-08
9.1529304e-08
2.3835598e-05
7.6746534e-08
8.9229251e-08
2.3746933e-05
7.5962313e-08
8.7011041e-08
2.366006e-05
7.5187625e-08
8.4870715e-08
2.3574922e-05
7.4421954e-08
8.2804538e-08
2.3491466e-05
7.3664616e-08
8.0808926e-08
2.3409641e-05
7.2914606e-08
7.8880368e-08
2.33294e-05
7.2170676e-08
7.7015504e-08
2.3250698e-05
7.1431294e-08
7.521099e-08
2.3173493e-05
7.069487e-08
7.3463603e-08
2.3097745e-05
6.9960208e-08
7.1770062e-08
2.3023418e-05
6.9227994e-08
7.0127016e-08
2.2950477e-05
6.8503493e-08
6.8531156e-08
2.2878889e-05
6.7802889e-08
6.6979714e-08
2.2808619e-05
6.7165076e-08
6.5471562e-08
2.2739625e-05
6.6675258e-08
6.4013377e-08
2.267185e-05
6.6507091e-08
6.2642293e-08
2.2605149e-05
6.6990746e-08
6.1532392e-08
2.2538888e-05
6.8686047e-08
6.1499873e-08
2.2471121e-05
7.2226978e-08
6.4845115e-08
7.672285e-08
9.8461337e-08
0.0001051979
1.3340884e-06
6.4961221e-06
9.9496561e-05
2.3731022e-06
6.6011947e-06
9.4262459e-05
2.9019224e-06
6.1610799e-06
8.9251186e-05
3.0856642e-06
5.9094196e-06
8.4493498e-05
3.0947347e-06
5.6224614e-06
8.0033635e-05
2.9846656e-06
5.2651341e-06
7.5876907e-05
2.7790155e-06
4.8792667e-06
7.2014635e-05
2.5106844e-06
4.4927895e-06
6.8436293e-05
2.2128728e-06
4.1169489e-06
6.5131387e-05
1.9107259e-06
3.7575291e-06
6.208941e-05
1.621732e-06
3.4186596e-06
5.9299432e-05
1.3573877e-06
3.1029661e-06
5.6749589e-05
1.1240343e-06
2.8116387e-06
5.4426788e-05
9.2377942e-07
2.5448158e-06
5.2316754e-05
7.5572795e-07
2.3019466e-06
5.0404313e-05
6.1717851e-07
2.0820302e-06
4.8673788e-05
5.0454348e-07
1.8837772e-06
4.7109414e-05
4.1397178e-07
1.7057274e-06
4.5695713e-05
3.4173649e-07
1.5463363e-06
4.4417792e-05
2.8445147e-07
1.4040359e-06
4.3261575e-05
2.3917114e-07
1.2772781e-06
4.2213953e-05
2.0341506e-07
1.1645652e-06
4.1262871e-05
1.7514744e-07
1.0644718e-06
4.039737e-05
1.5273233e-07
9.7565897e-07
3.9607583e-05
1.348753e-07
8.9688142e-07
3.8884688e-05
1.2055567e-07
8.270164e-07
3.8220848e-05
1.090109e-07
7.6501857e-07
3.7609155e-05
9.9633816e-08
7.0994489e-07
3.7043542e-05
9.1977409e-08
6.6095088e-07
3.6518702e-05
8.5705801e-08
6.1728289e-07
3.6030009e-05
8.0552367e-08
5.7827308e-07
3.5573433e-05
7.6308295e-08
5.4333413e-07
3.5145475e-05
7.2811263e-08
5.1195028e-07
3.4743091e-05
6.9934118e-08
4.836702e-07
3.4363641e-05
6.7575403e-08
4.5810063e-07
3.4004828e-05
6.5652882e-08
4.3489996e-07
3.3664659e-05
6.4098581e-08
4.1377208e-07
3.3341393e-05
6.2855886e-08
3.9446093e-07
3.3033513e-05
6.1876995e-08
3.7674527e-07
3.2739693e-05
6.1121074e-08
3.6043423e-07
3.2458768e-05
6.0553048e-08
3.4536327e-07
3.2189712e-05
6.0142687e-08
3.3139055e-07
3.1931622e-05
5.9863663e-08
3.1839376e-07
3.1683696e-05
5.9693129e-08
3.0626736e-07
3.1445219e-05
5.9611231e-08
2.9492012e-07
3.1215555e-05
5.9600618e-08
2.8427317e-07
3.0994132e-05
5.9646515e-08
2.7425806e-07
3.0780436e-05
5.9736176e-08
2.6481539e-07
3.0574002e-05
5.985864e-08
2.5589334e-07
3.0374407e-05
6.0004934e-08
2.474466e-07
3.0181267e-05
6.0167652e-08
2.3943547e-07
2.9994229e-05
6.0341255e-08
2.3182487e-07
2.9812971e-05
6.0521804e-08
2.2458374e-07
2.9637193e-05
6.0704445e-08
2.1768456e-07
2.9466629e-05
6.0867282e-08
2.1110456e-07
2.9301024e-05
6.1016991e-08
2.0482183e-07
2.914014e-05
6.1160849e-08
1.9881569e-07
2.8983756e-05
6.1294937e-08
1.9306839e-07
2.8831669e-05
6.1415472e-08
1.8756389e-07
2.8683688e-05
6.1520953e-08
1.8228762e-07
2.8539633e-05
6.161057e-08
1.7722632e-07
2.8399336e-05
6.1683778e-08
1.7236783e-07
2.8262639e-05
6.174046e-08
1.677009e-07
2.8129394e-05
6.178068e-08
1.6321519e-07
2.7999461e-05
6.1803892e-08
1.5890118e-07
2.7872709e-05
6.1807369e-08
1.5475035e-07
2.7749012e-05
6.1793577e-08
1.5075442e-07
2.7628253e-05
6.1764831e-08
1.469056e-07
2.7510319e-05
6.1720999e-08
1.4319663e-07
2.7395105e-05
6.1662122e-08
1.3962085e-07
2.728251e-05
6.1588628e-08
1.3617201e-07
2.7172439e-05
6.1501061e-08
1.328442e-07
2.7064802e-05
6.1399967e-08
1.2963192e-07
2.6959511e-05
6.1285969e-08
1.265299e-07
2.6856486e-05
6.115952e-08
1.2353327e-07
2.6755649e-05
6.102133e-08
1.2063731e-07
2.6656924e-05
6.0871845e-08
1.1783764e-07
2.6560242e-05
6.0711731e-08
1.1513015e-07
2.6465535e-05
6.0541361e-08
1.1251078e-07
2.6372738e-05
6.0361295e-08
1.099758e-07
2.6281792e-05
6.0171965e-08
1.0752159e-07
2.6192636e-05
5.9973556e-08
1.0514471e-07
2.6105215e-05
5.9766322e-08
1.0284181e-07
2.6019477e-05
5.9550257e-08
1.0060974e-07
2.5935371e-05
5.9325123e-08
9.8445299e-08
2.585285e-05
5.9090463e-08
9.6345378e-08
2.5771868e-05
5.8845459e-08
9.4306938e-08
2.5692384e-05
5.8588998e-08
9.2326708e-08
2.5614357e-05
5.8319795e-08
9.0401433e-08
2.5537753e-05
5.8037077e-08
8.8527337e-08
2.5462539e-05
5.7741633e-08
8.6700226e-08
2.5388689e-05
5.7438394e-08
8.4915167e-08
2.5316184e-05
5.7141466e-08
8.3166635e-08
2.5245017e-05
5.6882578e-08
8.1449648e-08
2.51752e-05
5.6726059e-08
7.9765808e-08
2.510677e-05
5.6787912e-08
7.814917e-08
2.5039729e-05
5.7251611e-08
7.678096e-08
2.4973573e-05
5.8330951e-08
7.6510202e-08
2.4906079e-05
5.9989499e-08
7.973214e-08
6.0714984e-08
1.1287822e-07
0.00010503672
9.0789369e-07
6.5005614e-06
9.9140653e-05
1.6524914e-06
6.6166802e-06
9.3788329e-05
2.0825242e-06
6.1717217e-06
8.8708526e-05
2.2549373e-06
5.91053e-06
8.3909682e-05
2.278404e-06
5.6151748e-06
7.9437109e-05
2.2074821e-06
5.2497564e-06
7.5296201e-05
2.0645348e-06
4.8553893e-06
7.1474034e-05
1.8722543e-06
4.4605969e-06
6.7955013e-05
1.6547667e-06
4.0771269e-06
6.4723621e-05
1.4313505e-06
3.7107669e-06
6.1764423e-05
1.2154297e-06
3.3655007e-06
5.9062056e-05
1.015864e-06
3.0438911e-06
5.6601108e-05
8.3782747e-07
2.7471548e-06
5.4365944e-05
6.834465e-07
2.475497e-06
5.2340648e-05
5.5258528e-07
2.2284383e-06
5.0509125e-05
4.4366547e-07
2.0050361e-06
4.8855299e-05
3.5433454e-07
1.8040352e-06
4.7363353e-05
2.8193592e-07
1.6239821e-06
4.6017963e-05
2.2381343e-07
1.4633127e-06
4.4804503e-05
1.7749383e-07
1.3204181e-06
4.3709199e-05
1.407809e-07
1.1936935e-06
4.2719248e-05
1.1179155e-07
1.081575e-06
4.1822875e-05
8.8954547e-08
9.8256585e-07
4.1009364e-05
7.0988042e-08
8.9525472e-07
4.0269054e-05
5.6861836e-08
8.1832381e-07
3.9593306e-05
4.5719126e-08
7.5058475e-07
3.8974405e-05
3.6977836e-08
6.9093437e-07
3.8405585e-05
3.0067354e-08
6.3838633e-07
3.7880869e-05
2.4650837e-08
5.9204242e-07
3.7395029e-05
2.0439986e-08
5.5110606e-07
3.6943514e-05
1.7190276e-08
5.1487713e-07
3.6522366e-05
1.4716743e-08
4.8273956e-07
3.6128148e-05
1.2874784e-08
4.5415389e-07
3.5757883e-05
1.154991e-08
4.2864944e-07
3.5408991e-05
1.0650741e-08
4.0581703e-07
3.5079238e-05
1.0103624e-08
3.8530231e-07
3.4766689e-05
9.8482565e-09
3.6679879e-07
3.4469668e-05
9.8350881e-09
3.5004234e-07
3.4186716e-05
1.002292e-08
3.348055e-07
3.3916567e-05
1.0377014e-08
3.2089286e-07
3.3658116e-05
1.086807e-08
3.0813661e-07
3.3410395e-05
1.1470971e-08
2.9639284e-07
3.3172556e-05
1.2164248e-08
2.8553824e-07
3.2943853e-05
1.2929313e-08
2.7546718e-07
3.2723625e-05
1.3750167e-08
2.6608893e-07
3.2511286e-05
1.4613101e-08
2.5732572e-07
3.2306316e-05
1.5506227e-08
2.4911066e-07
3.2108246e-05
1.6419582e-08
2.4138622e-07
3.1916658e-05
1.7344656e-08
2.3410271e-07
3.1731171e-05
1.8274306e-08
2.2721712e-07
3.1551444e-05
1.9203186e-08
2.2069214e-07
3.1377162e-05
2.0127768e-08
2.144951e-07
3.1208038e-05
2.1048663e-08
2.0859678e-07
3.10438e-05
2.1972774e-08
2.0297056e-07
3.0884232e-05
2.282786e-08
1.976074e-07
3.0729103e-05
2.3662965e-08
1.9248229e-07
3.05782e-05
2.4490016e-08
1.8757381e-07
3.0431331e-05
2.5296299e-08
1.8286761e-07
3.0288318e-05
2.6078003e-08
1.7835079e-07
3.0148994e-05
2.6834293e-08
1.7401105e-07
3.0013202e-05
2.7564686e-08
1.698375e-07
2.9880797e-05
2.8268954e-08
1.6582021e-07
2.975164e-05
2.8947457e-08
1.6195014e-07
2.9625601e-05
2.9600766e-08
1.5821898e-07
2.9502557e-05
3.0228561e-08
1.5461919e-07
2.9382396e-05
3.0823586e-08
1.5114465e-07
2.9265007e-05
3.1393117e-08
1.4778875e-07
2.9150287e-05
3.1939588e-08
1.4454536e-07
2.9038137e-05
3.2461882e-08
1.4140902e-07
2.8928465e-05
3.2960087e-08
1.3837462e-07
2.8821181e-05
3.3434742e-08
1.3543752e-07
2.8716203e-05
3.3886353e-08
1.325933e-07
2.8613449e-05
3.4315552e-08
1.2983787e-07
2.8512845e-05
3.4722901e-08
1.2716736e-07
2.8414317e-05
3.5109001e-08
1.2457814e-07
2.8317797e-05
3.5474427e-08
1.2206677e-07
2.8223219e-05
3.581991e-08
1.1963009e-07
2.813052e-05
3.6145913e-08
1.1726494e-07
2.803964e-05
3.6453054e-08
1.149684e-07
2.7950522e-05
3.6741883e-08
1.1273774e-07
2.7863111e-05
3.7012788e-08
1.1057026e-07
2.7777355e-05
3.7266255e-08
1.0846343e-07
2.7693204e-05
3.7502441e-08
1.0641473e-07
2.7610611e-05
3.7721597e-08
1.0442177e-07
2.752953e-05
3.7923539e-08
1.0248204e-07
2.744992e-05
3.8107967e-08
1.0059308e-07
2.7371738e-05
3.8274249e-08
9.87523e-08
2.7294949e-05
3.8421526e-08
9.695689e-08
2.7219516e-05
3.8548738e-08
9.520364e-08
2.714541e-05
3.8655096e-08
9.3488634e-08
2.7072603e-05
3.8741141e-08
9.1806943e-08
2.7001079e-05
3.8810258e-08
9.0152311e-08
2.6930832e-05
3.8872133e-08
8.8516577e-08
2.6861877e-05
3.8947415e-08
8.6890525e-08
2.679426e-05
3.9073533e-08
8.5269197e-08
2.6728065e-05
3.9306957e-08
8.3675932e-08
2.6663337e-05
3.9708363e-08
8.2271169e-08
2.659956e-05
4.0272014e-08
8.183621e-08
2.6534295e-05
4.0698023e-08
8.4555736e-08
3.9620847e-08
1.1507132e-07
0.00010494757
5.6811081e-07
6.5033076e-06
9.8925416e-05
1.0462983e-06
6.6283517e-06
9.3480449e-05
1.3439844e-06
6.1835065e-06
8.8341777e-05
1.4751324e-06
5.9184763e-06
8.3502084e-05
1.4993911e-06
5.6187065e-06
7.9004057e-05
1.4572411e-06
5.2482679e-06
7.4853978e-05
1.3667382e-06
4.8478757e-06
7.1037378e-05
1.2423973e-06
4.4464569e-06
6.7536063e-05
1.0997693e-06
4.0563127e-06
6.4331998e-05
9.5192363e-07
3.683491e-06
6.1407318e-05
8.0805757e-07
3.3320524e-06
5.8744339e-05
6.7422203e-07
3.0046209e-06
5.6325632e-05
5.5404397e-07
2.7024907e-06
5.4133973e-05
4.4916748e-07
2.4259383e-06
5.2152298e-05
3.5972401e-07
2.174536e-06
5.0363747e-05
2.8484512e-07
1.9473718e-06
4.875178e-05
2.2310002e-07
1.7432015e-06
4.7300339e-05
1.7281166e-07
1.5605646e-06
4.5994012e-05
1.3226571e-07
1.3978748e-06
4.4818177e-05
9.983998e-08
1.2534891e-06
4.3759121e-05
7.407557e-08
1.1257614e-06
4.2804123e-05
5.3707607e-08
1.0130814e-06
4.1941503e-05
3.7671208e-08
9.1390377e-07
4.1160627e-05
2.5096435e-08
8.2676732e-07
4.0451891e-05
1.5294161e-08
7.5030388e-07
3.980679e-05
7.5281529e-09
6.8329175e-07
3.9217543e-05
1.6727285e-09
6.2455202e-07
3.8677513e-05
-3.0331033e-09
5.7313083e-07
3.8180739e-05
-6.6486548e-09
5.2807356e-07
3.7722004e-05
-9.3595098e-09
4.885345e-07
3.7296777e-05
-1.1371826e-08
4.5378925e-07
3.6901113e-05
-1.2818258e-08
4.2319911e-07
3.6531588e-05
-1.3805297e-08
3.9620479e-07
3.6185236e-05
-1.4417463e-08
3.7231875e-07
3.5859491e-05
-1.472189e-08
3.5111775e-07
3.5552132e-05
-1.4772629e-08
3.3223579e-07
3.5261237e-05
-1.4613923e-08
3.1535728e-07
3.4985143e-05
-1.4282206e-08
3.0021089e-07
3.472241e-05
-1.3807694e-08
2.8656376e-07
3.4471787e-05
-1.3215915e-08
2.7421631e-07
3.4232185e-05
-1.2528208e-08
2.6299771e-07
3.4002657e-05
-1.1762824e-08
2.5276174e-07
3.3782373e-05
-1.0935225e-08
2.4338336e-07
3.3570606e-05
-1.0058771e-08
2.3475557e-07
3.3366714e-05
-9.1447388e-09
2.2678672e-07
3.3170132e-05
-8.2028073e-09
2.1939832e-07
3.2980356e-05
-7.2412422e-09
2.1252301e-07
3.279694e-05
-6.2669114e-09
2.0610282e-07
3.2619482e-05
-5.2855439e-09
2.0008784e-07
3.2447623e-05
-4.3018065e-09
1.944348e-07
3.228104e-05
-3.3190383e-09
1.891059e-07
3.2119438e-05
-2.3383128e-09
1.8406736e-07
3.1962554e-05
-1.353068e-09
1.7928648e-07
3.1810075e-05
-2.7631307e-10
1.7472765e-07
3.1661878e-05
5.8583406e-10
1.7043904e-07
3.1517732e-05
1.4356091e-09
1.6637294e-07
3.1377429e-05
2.3038211e-09
1.6248961e-07
3.1240792e-05
3.158636e-09
1.5877486e-07
3.1107656e-05
3.9969631e-09
1.5521717e-07
3.0977867e-05
4.8171673e-09
1.5180546e-07
3.0851284e-05
5.6179606e-09
1.4852965e-07
3.0727774e-05
6.3990449e-09
1.4538077e-07
3.0607209e-05
7.1609473e-09
1.4235054e-07
3.0489473e-05
7.9059442e-09
1.3943123e-07
3.037445e-05
8.6357442e-09
1.3661578e-07
3.0262049e-05
9.3206742e-09
1.3390398e-07
3.0152163e-05
9.9938045e-09
1.3128565e-07
3.0044697e-05
1.0650383e-08
1.2875511e-07
2.9939564e-05
1.1286761e-08
1.2630828e-07
2.983668e-05
1.1903203e-08
1.2394088e-07
2.9735965e-05
1.2500186e-08
1.2164887e-07
2.9637345e-05
1.307791e-08
1.1942846e-07
2.9540748e-05
1.3636714e-08
1.1727616e-07
2.9446105e-05
1.4177022e-08
1.1518881e-07
2.9353352e-05
1.4699192e-08
1.1316339e-07
2.9262425e-05
1.5203532e-08
1.1119699e-07
2.9173268e-05
1.5690491e-08
1.0928704e-07
2.9085822e-05
1.6160395e-08
1.0743108e-07
2.9000035e-05
1.661359e-08
1.0562665e-07
2.8915855e-05
1.7050439e-08
1.0387153e-07
2.8833233e-05
1.7471114e-08
1.021636e-07
2.8752123e-05
1.7875952e-08
1.0050083e-07
2.8672479e-05
1.8265119e-08
9.8881097e-08
2.8594259e-05
1.8638551e-08
9.7302505e-08
2.8517424e-05
1.8996203e-08
9.5762964e-08
2.8441934e-05
1.9337793e-08
9.4260356e-08
2.8367753e-05
1.9662789e-08
9.2792356e-08
2.8294848e-05
1.997045e-08
9.1356264e-08
2.8223187e-05
2.0260003e-08
8.9948873e-08
2.8152746e-05
2.0530686e-08
8.856593e-08
2.8083503e-05
2.0782591e-08
8.7201789e-08
2.8015447e-05
2.101752e-08
8.5848688e-08
2.7948582e-05
2.1240707e-08
8.4495837e-08
2.7882937e-05
2.1462728e-08
8.3129526e-08
2.7818575e-05
2.1699988e-08
8.1736528e-08
2.7755588e-05
2.1969304e-08
8.0324367e-08
2.7694014e-05
2.2266183e-08
7.9016075e-08
2.7633299e-05
2.2506296e-08
7.848065e-08
2.7571004e-05
2.239343e-08
8.0599451e-08
2.0993066e-08
1.0779947e-07
0.00010489986
2.7443381e-07
6.5049155e-06
9.8802772e-05
5.0716634e-07
6.6362236e-06
9.329591e-05
6.5854974e-07
6.1922972e-06
8.8116302e-05
7.2902546e-07
5.9257148e-06
8.3248198e-05
7.4378812e-07