/*--------------------------------*- C++ -*----------------------------------*\
  =========                 |
  \\      /  F ield         | OpenFOAM: The Open Source CFD Toolbox
   \\    /   O peration     | Website:  https://openfoam.org
    \\  /    A nd           | Version:  7
     \\/     M anipulation  |
\*---------------------------------------------------------------------------*/
FoamFile
{
    version     2.0;
    format      ascii;
    class       surfaceScalarField;
    location    "2500/water";
    object      phi;
}
// * * * * * * * * * * * * * * * * * * * * * * * * * * * * * * * * * * * * * //

dimensions      [1 0 -1 0 0 0 0];

internalField   nonuniform List<scalar> 
156660
(
9.9057239e-05
6.0010402e-06
6.0528092e-06
8.6847498e-05
6.0555113e-06
6.1542307e-06
7.5687891e-05
5.5111362e-06
5.6484701e-06
6.5441704e-05
5.0404181e-06
5.2057689e-06
5.6267661e-05
4.4956436e-06
4.6783992e-06
4.8318019e-05
3.8797648e-06
4.0698777e-06
4.1624776e-05
3.2524448e-06
3.4407981e-06
3.6124897e-05
2.660462e-06
2.839417e-06
3.1692235e-05
2.1345127e-06
2.2981489e-06
2.8162841e-05
1.6926975e-06
1.8366964e-06
2.5361437e-05
1.3399933e-06
1.4614113e-06
2.3124664e-05
1.0698477e-06
1.1669256e-06
2.1315127e-05
8.6875418e-07
9.4078225e-07
1.9825714e-05
7.2110064e-07
7.6831271e-07
1.8577278e-05
6.1248247e-07
6.3595307e-07
1.7513255e-05
5.312522e-07
5.3277148e-07
1.6593744e-05
4.6879725e-07
4.507135e-07
1.5790433e-05
4.1913719e-07
3.8417386e-07
1.5082784e-05
3.7829068e-07
3.2935849e-07
1.4455417e-05
3.4367124e-07
2.8369565e-07
1.3896409e-05
3.1361408e-07
2.4539333e-07
1.339622e-05
2.870445e-07
2.1314452e-07
1.2947015e-05
2.6326032e-07
1.8594509e-07
1.2542237e-05
2.4179368e-07
1.6298461e-07
1.2176318e-05
2.2232209e-07
1.4359691e-07
1.1844484e-05
2.0461478e-07
1.2721882e-07
1.1542609e-05
1.8849494e-07
1.1337975e-07
1.1267116e-05
1.7381574e-07
1.0167796e-07
1.1014892e-05
1.6046271e-07
9.1760836e-08
1.0783252e-05
1.4833967e-07
8.3300628e-08
1.0569851e-05
1.3734902e-07
7.605211e-08
1.0372614e-05
1.2738863e-07
6.9848306e-08
1.0189731e-05
1.1836807e-07
6.4514801e-08
1.001963e-05
1.1020447e-07
5.9896635e-08
9.8609388e-06
1.0281924e-07
5.5871686e-08
9.7124594e-06
9.6137949e-08
5.2341365e-08
9.5731439e-06
9.0091158e-08
4.922435e-08
9.4420759e-06
8.4614457e-08
4.6453582e-08
9.3184531e-06
7.9648651e-08
4.3974098e-08
9.2015723e-06
7.5139746e-08
4.1741072e-08
9.0908166e-06
7.1038164e-08
3.9717555e-08
8.9856432e-06
6.7301156e-08
3.7872324e-08
8.8855707e-06
6.3894265e-08
3.6178161e-08
8.7901757e-06
6.0780104e-08
3.4614944e-08
8.6990829e-06
5.7926157e-08
3.3166639e-08
8.611959e-06
5.5303712e-08
3.1820088e-08
8.5285072e-06
5.2887446e-08
3.0564408e-08
8.4484618e-06
5.0655091e-08
2.9390297e-08
8.3715848e-06
4.8587058e-08
2.8290016e-08
8.2976614e-06
4.6666172e-08
2.7257172e-08
8.2264975e-06
4.4877446e-08
2.6286399e-08
8.1579202e-06
4.3208735e-08
2.5368524e-08
8.0917731e-06
4.1649031e-08
2.4498049e-08
8.0279108e-06
4.0186964e-08
2.3675363e-08
7.9662005e-06
3.8812661e-08
2.2897514e-08
7.9065219e-06
3.7518425e-08
2.2160243e-08
7.8487639e-06
3.6297855e-08
2.1460155e-08
7.7928242e-06
3.5145133e-08
2.0794573e-08
7.7386083e-06
3.4054654e-08
2.0161143e-08
7.6860293e-06
3.302135e-08
1.9557653e-08
7.6350062e-06
3.2040807e-08
1.8982236e-08
7.5854641e-06
3.1109056e-08
1.8433072e-08
7.537333e-06
3.0222613e-08
1.7908497e-08
7.4905478e-06
2.9378253e-08
1.7406995e-08
7.4450476e-06
2.8572995e-08
1.6927186e-08
7.4007755e-06
2.7804225e-08
1.6467764e-08
7.3576783e-06
2.7069567e-08
1.6027648e-08
7.3157056e-06
2.6367024e-08
1.5605611e-08
7.2748103e-06
2.5694644e-08
1.5200679e-08
7.2349479e-06
2.5050555e-08
1.4811832e-08
7.1960766e-06
2.443306e-08
1.4438183e-08
7.158157e-06
2.3840671e-08
1.4078926e-08
7.1211518e-06
2.3271929e-08
1.3733289e-08
7.0850257e-06
2.2725474e-08
1.3400514e-08
7.0497456e-06
2.2200195e-08
1.307995e-08
7.0152798e-06
2.1694912e-08
1.2770865e-08
6.9815985e-06
2.1208581e-08
1.2472787e-08
6.9486733e-06
2.0740251e-08
1.2184915e-08
6.9164775e-06
2.028898e-08
1.1906789e-08
6.8849857e-06
1.985398e-08
1.1637836e-08
6.8541739e-06
1.9434368e-08
1.1377465e-08
6.8240193e-06
1.9029453e-08
1.1125098e-08
6.7945006e-06
1.8638495e-08
1.0880235e-08
6.7655975e-06
1.8260791e-08
1.0642293e-08
6.7372912e-06
1.7895566e-08
1.0410765e-08
6.709564e-06
1.7542107e-08
1.0185081e-08
6.6823995e-06
1.7199634e-08
9.9648868e-09
6.6557824e-06
1.686728e-08
9.749831e-09
6.6296983e-06
1.6544114e-08
9.5399837e-09
6.6041331e-06
1.6229244e-08
9.3359629e-09
6.5790714e-06
1.592195e-08
9.1396948e-09
6.554494e-06
1.5622301e-08
8.9550771e-09
6.5303707e-06
1.533252e-08
8.7906607e-09
6.5066467e-06
1.5060469e-08
8.6636019e-09
6.4832094e-06
1.4827841e-08
8.6095281e-09
6.4598103e-06
1.4693105e-08
8.7060209e-09
6.4358387e-06
1.4826434e-08
9.1451472e-09
6.4096302e-06
1.5741778e-08
1.046676e-08
6.3782854e-06
1.8026529e-08
1.3318209e-08
3.2300228e-08
2.7923553e-08
0.00010646494
4.1872386e-06
6.4599816e-06
0.0001002019
5.695418e-06
6.6231353e-06
9.3659588e-05
5.7790389e-06
6.2744098e-06
8.7011589e-05
5.6514783e-06
6.0369387e-06
8.0422927e-05
5.366912e-06
5.7173941e-06
7.4094022e-05
4.9022832e-06
5.3063863e-06
6.8167026e-05
4.3278135e-06
4.8516273e-06
6.2722565e-05
3.717891e-06
4.387032e-06
5.7799049e-05
3.1243144e-06
3.9337144e-06
5.3403345e-05
2.5820689e-06
3.5063329e-06
4.9517402e-05
2.1121062e-06
3.11383e-06
4.6105482e-05
1.7220197e-06
2.7597474e-06
4.3121558e-05
1.4089355e-06
2.4437429e-06
4.0515558e-05
1.1637552e-06
2.163346e-06
3.8237948e-05
9.748585e-07
1.9152336e-06
3.6242683e-05
8.3055975e-07
1.6959573e-06
3.4488759e-05
7.2043696e-07
1.5022849e-06
3.2940716e-05
6.3586296e-07
1.3313172e-06
3.1568463e-05
5.7005006e-07
1.1804931e-06
3.0346733e-05
5.1784897e-07
1.0475522e-06
2.9254398e-05
4.7545953e-07
9.3049033e-07
2.8273782e-05
4.4013957e-07
8.2752024e-07
2.7390054e-05
4.0994894e-07
7.370401e-07
2.6590699e-05
3.8353957e-07
6.5760856e-07
2.5865102e-05
3.599889e-07
5.8793071e-07
2.5204198e-05
3.3867632e-07
5.2684263e-07
2.4600205e-05
3.1918358e-07
4.7330349e-07
2.4046429e-05
3.0120191e-07
4.2639018e-07
2.3537073e-05
2.8455206e-07
3.8526719e-07
2.3067119e-05
2.69111e-07
3.4918237e-07
2.2632208e-05
2.5478166e-07
3.1747783e-07
2.2228528e-05
2.4147383e-07
2.8959529e-07
2.1852744e-05
2.2911073e-07
2.6504123e-07
2.1501947e-05
2.1762894e-07
2.4337257e-07
2.1173591e-05
2.0696951e-07
2.2420572e-07
2.0865444e-05
1.9707568e-07
2.0720866e-07
2.0575549e-05
1.8789255e-07
1.9209397e-07
2.0302183e-05
1.7936726e-07
1.7861344e-07
2.0043829e-05
1.7144911e-07
1.6655321e-07
1.979915e-05
1.6408981e-07
1.5572944e-07
1.956696e-05
1.5724382e-07
1.4598405e-07
1.934621e-05
1.5086898e-07
1.3718218e-07
1.9135969e-05
1.4492654e-07
1.2920879e-07
1.8935407e-05
1.3937905e-07
1.2196309e-07
1.8743783e-05
1.3419229e-07
1.1535762e-07
1.8560435e-05
1.2933509e-07
1.0931726e-07
1.8384766e-05
1.2477907e-07
1.0377714e-07
1.8216241e-05
1.2049851e-07
9.8681282e-08
1.8054377e-05
1.1647014e-07
9.3981328e-08
1.7898734e-05
1.1267292e-07
8.9635429e-08
1.7748917e-05
1.0908821e-07
8.5607002e-08
1.7604563e-05
1.0570006e-07
8.1862423e-08
1.7465345e-05
1.0249336e-07
7.8373271e-08
1.7330962e-05
9.9452971e-08
7.5116983e-08
1.7201138e-05
9.656439e-08
7.207274e-08
1.7075619e-05
9.3816669e-08
6.9221172e-08
1.695417e-05
9.1201117e-08
6.6545124e-08
1.6836577e-05
8.8709119e-08
6.4029535e-08
1.6722638e-05
8.633195e-08
6.1661037e-08
1.661217e-05
8.4061776e-08
5.942768e-08
1.6505001e-05
8.1891555e-08
5.7318779e-08
1.640097e-05
7.9814952e-08
5.5324813e-08
1.6299929e-05
7.7826137e-08
5.3437129e-08
1.620174e-05
7.5919862e-08
5.1647878e-08
1.6106272e-05
7.4091016e-08
4.9950112e-08
1.6013404e-05
7.2334979e-08
4.8337356e-08
1.5923022e-05
7.064772e-08
4.6803846e-08
1.5835019e-05
6.9025686e-08
4.5344247e-08
1.5749294e-05
6.7465506e-08
4.3953686e-08
1.5665753e-05
6.5963766e-08
4.2627705e-08
1.5584307e-05
6.451734e-08
4.136214e-08
1.5504871e-05
6.3123408e-08
4.0153338e-08
1.5427365e-05
6.1779303e-08
3.8997792e-08
1.5351716e-05
6.0482562e-08
3.7892276e-08
1.5277852e-05
5.9230815e-08
3.6833834e-08
1.5205705e-05
5.8021983e-08
3.5819756e-08
1.5135212e-05
5.6853994e-08
3.4847391e-08
1.5066313e-05
5.5724987e-08
3.391435e-08
1.499895e-05
5.4633128e-08
3.301841e-08
1.493307e-05
5.3576711e-08
3.2157424e-08
1.4868621e-05
5.2554166e-08
3.132943e-08
1.4805554e-05
5.1563938e-08
3.0532446e-08
1.4743823e-05
5.0604463e-08
2.9764654e-08
1.4683385e-05
4.9674298e-08
2.9024381e-08
1.4624199e-05
4.8771814e-08
2.8309845e-08
1.4566226e-05
4.7895454e-08
2.7619551e-08
1.4509431e-05
4.7043519e-08
2.6951967e-08
1.4453778e-05
4.6214127e-08
2.6305779e-08
1.4399237e-05
4.5405437e-08
2.5679891e-08
1.4345777e-05
4.4615743e-08
2.5073762e-08
1.4293367e-05
4.3844275e-08
2.448772e-08
1.4241972e-05
4.3092868e-08
2.3923755e-08
1.4191548e-05
4.2369921e-08
2.3387118e-08
1.4142019e-05
4.1699317e-08
2.2889612e-08
1.4093249e-05
4.1141638e-08
2.2456623e-08
1.4044951e-05
4.0844669e-08
2.2146577e-08
1.3996485e-05
4.1169176e-08
2.212306e-08
1.3946229e-05
4.3012313e-08
2.2985383e-08
1.389015e-05
4.8540259e-08
2.5565789e-08
6.3281547e-08
5.0000854e-08
0.00010603565
2.7876425e-06
6.4750379e-06
0.00010074799
4.4145413e-06
6.5685292e-06
9.5493515e-05
4.8594028e-06
6.1741158e-06
9.0256432e-05
4.930369e-06
5.9581921e-06
8.5101366e-05
4.8311767e-06
5.6908012e-06
8.0102875e-05
4.5561761e-06
5.3445981e-06
7.5322251e-05
4.1469521e-06
4.9614853e-06
7.0803266e-05
3.6678925e-06
4.5689837e-06
6.6576264e-05
3.1701903e-06
4.1811255e-06
6.2660725e-05
2.6900109e-06
3.8075976e-06
5.9065443e-05
2.2519319e-06
3.4554566e-06
5.5788936e-05
1.8697304e-06
3.1287958e-06
5.2820978e-05
1.5477473e-06
2.8291458e-06
5.014479e-05
1.2836302e-06
2.5563139e-06
4.7739304e-05
1.07123e-06
2.3091141e-06
4.5581183e-05
9.0281505e-07
2.0858661e-06
4.3646423e-05
7.7048781e-07
1.884709e-06
4.1911533e-05
6.6697372e-07
1.7037793e-06
4.0354306e-05
5.8598197e-07
1.541295e-06
3.8954268e-05
5.2230225e-07
1.3955849e-06
3.769288e-05
4.7175605e-07
1.265091e-06
3.6553576e-05
4.3107987e-07
1.1483634e-06
3.552169e-05
3.9778208e-07
1.0440533e-06
3.4584322e-05
3.6999885e-07
9.5090829e-07
3.3730181e-05
3.4635985e-07
8.6777017e-07
3.2949411e-05
3.2587761e-07
7.9356872e-07
3.2233419e-05
3.0784047e-07
7.2733483e-07
3.1574711e-05
2.9172987e-07
6.6818106e-07
3.0966769e-05
2.7719265e-07
6.1530131e-07
3.0403928e-05
2.63981e-07
5.6797018e-07
2.9881258e-05
2.5190845e-07
5.2554315e-07
2.9394455e-05
2.4082711e-07
4.8745e-07
2.8939761e-05
2.3062159e-07
4.5318329e-07
2.8513895e-05
2.2120152e-07
4.2229386e-07
2.8113985e-05
2.1249196e-07
3.9438675e-07
2.7737518e-05
2.0442797e-07
3.691149e-07
2.7382285e-05
1.9695191e-07
3.4617384e-07
2.7046344e-05
1.900118e-07
3.252968e-07
2.6727982e-05
1.8355995e-07
3.0625041e-07
2.6425689e-05
1.7755279e-07
2.8883086e-07
2.6138123e-05
1.7195004e-07
2.7285984e-07
2.5864094e-05
1.6671514e-07
2.5818184e-07
2.5602546e-05
1.6181453e-07
2.4466092e-07
2.535253e-05
1.5721711e-07
2.3217767e-07
2.51132e-05
1.5289444e-07
2.2062728e-07
2.4883797e-05
1.4882094e-07
2.0991774e-07
2.4663634e-05
1.4497364e-07
1.9996813e-07
2.4452094e-05
1.4133182e-07
1.9070705e-07
2.4248615e-05
1.3787692e-07
1.8207153e-07
2.405269e-05
1.3459266e-07
1.740057e-07
2.3863854e-05
1.3146461e-07
1.664599e-07
2.3681684e-05
1.2848058e-07
1.5938926e-07
2.3505794e-05
1.2562918e-07
1.5275412e-07
2.3335829e-05
1.2289865e-07
1.4651967e-07
2.3171462e-05
1.2027634e-07
1.406546e-07
2.3012394e-05
1.1775475e-07
1.3513023e-07
2.2858345e-05
1.1532971e-07
1.2992043e-07
2.2709057e-05
1.1299538e-07
1.2500172e-07
2.2564291e-05
1.1074519e-07
1.2035289e-07
2.2423824e-05
1.0857347e-07
1.1595457e-07
2.2287451e-05
1.0647549e-07
1.1178923e-07
2.2154978e-05
1.04447e-07
1.0784079e-07
2.2026226e-05
1.0248417e-07
1.0409457e-07
2.1901025e-05
1.0058346e-07
1.0053714e-07
2.1779218e-05
9.8741531e-08
9.715615e-08
2.1660658e-05
9.6954894e-08
9.3940277e-08
2.1545205e-05
9.5221229e-08
9.0879039e-08
2.1432729e-05
9.3538794e-08
8.7962803e-08
2.1323107e-05
9.1905299e-08
8.5182587e-08
2.1216222e-05
9.0318545e-08
8.2530182e-08
2.1111965e-05
8.8776415e-08
7.9997896e-08
2.1010233e-05
8.7277153e-08
7.7578629e-08
2.0910927e-05
8.5818963e-08
7.5265859e-08
2.0813956e-05
8.4400313e-08
7.3053412e-08
2.0719232e-05
8.3019678e-08
7.0935639e-08
2.0626671e-05
8.1675631e-08
6.8907206e-08
2.0536195e-05
8.0366811e-08
6.6963103e-08
2.0447729e-05
7.9091943e-08
6.5098732e-08
2.0361203e-05
7.784983e-08
6.3309771e-08
2.0276548e-05
7.6639207e-08
6.1592024e-08
2.0193702e-05
7.5458964e-08
5.9941734e-08
2.0112602e-05
7.4307964e-08
5.8355237e-08
2.0033193e-05
7.3184913e-08
5.6829051e-08
1.9955419e-05
7.2088608e-08
5.5359957e-08
1.9879228e-05
7.1017647e-08
5.394483e-08
1.9804572e-05
6.9970445e-08
5.2580708e-08
1.9731406e-05
6.894525e-08
5.126479e-08
1.9659685e-05
6.7940128e-08
4.9994417e-08
1.9589371e-05
6.6953035e-08
4.876706e-08
1.9520423e-05
6.5982363e-08
4.7580546e-08
1.9452807e-05
6.5028013e-08
4.643308e-08
1.9386482e-05
6.4094131e-08
4.5323743e-08
1.9321404e-05
6.3194703e-08
4.4253083e-08
1.9257511e-05
6.2366357e-08
4.3225238e-08
1.9194705e-05
6.1695166e-08
4.2253133e-08
1.9132798e-05
6.1374081e-08
4.1377397e-08
1.9071394e-05
6.1822415e-08
4.0750656e-08
1.9009424e-05
6.3924738e-08
4.1057594e-08
1.8944661e-05
6.9304698e-08
4.3998836e-08
7.9170932e-08
7.4661552e-08
0.0001054937
1.9169871e-06
6.4880406e-06
0.00010005365
3.2729596e-06
6.5816334e-06
9.4926077e-05
3.8288996e-06
6.1580776e-06
8.9946373e-05
3.9838109e-06
5.9262629e-06
8.5163276e-05
3.9595077e-06
5.6547657e-06
8.0619137e-05
3.7899368e-06
5.3103784e-06
7.6329462e-05
3.5015547e-06
4.9350725e-06
7.230016e-05
3.1412013e-06
4.5559928e-06
6.8534206e-05
2.7514802e-06
4.1846641e-06
6.5032983e-05
2.3633493e-06
3.8278852e-06
6.1795789e-05
1.9984144e-06
3.490711e-06
5.8818843e-05
1.6703759e-06
3.176301e-06
5.6094717e-05
1.3858295e-06
2.8860429e-06
5.3612488e-05
1.1457945e-06
2.6200649e-06
5.1358373e-05
9.4764117e-07
2.3777043e-06
4.9316593e-05
7.8676787e-07
2.1578272e-06
4.7470246e-05
6.5779547e-07
1.9590391e-06
4.5802069e-05
5.5532544e-07
1.7798252e-06
4.4295042e-05
4.7437117e-07
1.6186378e-06
4.293283e-05
4.1056669e-07
1.473948e-06
4.1700078e-05
3.6023237e-07
1.3442759e-06
4.0582591e-05
3.2035746e-07
1.2282094e-06
3.956742e-05
2.8853738e-07
1.1244154e-06
3.8642881e-05
2.6289064e-07
1.0316467e-06
3.7798527e-05
2.4196984e-07
9.4874397e-07
3.7025076e-05
2.2467702e-07
8.7465169e-07
3.6314324e-05
2.1018901e-07
8.0840411e-07
3.5659057e-05
1.9788604e-07
7.4911042e-07
3.5052961e-05
1.873158e-07
6.9597283e-07
3.4490519e-05
1.7814869e-07
6.4827381e-07
3.3966922e-05
1.7013169e-07
6.0537441e-07
3.3477973e-05
1.6306727e-07
5.6670864e-07
3.3020016e-05
1.5680294e-07
5.3177543e-07
3.2589865e-05
1.5122052e-07
5.0013243e-07
3.218474e-05
1.4622561e-07
4.7139136e-07
3.1802215e-05
1.4174076e-07
4.4521234e-07
3.1440168e-05
1.3770096e-07
4.2129811e-07
3.1096739e-05
1.3405096e-07
3.9938923e-07
3.0770297e-05
1.3074295e-07
3.7925953e-07
3.0459402e-05
1.2773516e-07
3.6071193e-07
3.0162787e-05
1.249909e-07
3.4357478e-07
2.9879325e-05
1.2247788e-07
3.2769852e-07
2.960802e-05
1.2016735e-07
3.1295272e-07
2.934798e-05
1.1803382e-07
2.9922355e-07
2.9098408e-05
1.1605463e-07
2.864114e-07
2.885859e-05
1.1420983e-07
2.7442907e-07
2.8627882e-05
1.1248192e-07
2.6320001e-07
2.8405701e-05
1.1085558e-07
2.5265684e-07
2.819152e-05
1.093176e-07
2.4274027e-07
2.7984859e-05
1.0785649e-07
2.3339757e-07
2.7785279e-05
1.0646279e-07
2.2458214e-07
2.7592378e-05
1.051287e-07
2.1625217e-07
2.740579e-05
1.0384734e-07
2.0837035e-07
2.7225174e-05
1.0261118e-07
2.0090361e-07
2.705022e-05
1.0140747e-07
1.9382257e-07
2.6880641e-05
1.0023382e-07
1.8710041e-07
2.6716166e-05
9.9092351e-08
1.8071225e-07
2.6556546e-05
9.7980012e-08
1.7463559e-07
2.6401548e-05
9.6892537e-08
1.6885015e-07
2.6250957e-05
9.5827093e-08
1.6333741e-07
2.610457e-05
9.4781682e-08
1.5808043e-07
2.5962199e-05
9.3754715e-08
1.5306362e-07
2.5823666e-05
9.2744874e-08
1.4827261e-07
2.5688804e-05
9.1751013e-08
1.4369413e-07
2.5557458e-05
9.0771778e-08
1.3931599e-07
2.5429481e-05
8.9805167e-08
1.3512695e-07
2.5304734e-05
8.8851433e-08
1.3111643e-07
2.5183087e-05
8.7911209e-08
1.2727465e-07
2.5064416e-05
8.6983936e-08
1.2359243e-07
2.4948604e-05
8.6068888e-08
1.2006118e-07
2.4835542e-05
8.5165795e-08
1.1667304e-07
2.4725124e-05
8.4274321e-08
1.1342047e-07
2.4617252e-05
8.3394274e-08
1.1029654e-07
2.4511832e-05
8.2525471e-08
1.0729478e-07
2.4408775e-05
8.1667721e-08
1.0440898e-07
2.4307997e-05
8.0820944e-08
1.016334e-07
2.4209416e-05
7.9985017e-08
9.8962632e-08
2.4112956e-05
7.915975e-08
9.6391522e-08
2.4018546e-05
7.8345004e-08
9.3915308e-08
2.3926115e-05
7.7540687e-08
9.1529315e-08
2.3835598e-05
7.6746528e-08
8.9229251e-08
2.3746933e-05
7.5962307e-08
8.7011026e-08
2.366006e-05
7.5187654e-08
8.487071e-08
2.3574922e-05
7.4421986e-08
8.2804527e-08
2.3491466e-05
7.3664621e-08
8.0808905e-08
2.3409641e-05
7.2914638e-08
7.8880354e-08
2.33294e-05
7.2170725e-08
7.7015473e-08
2.3250698e-05
7.1431338e-08
7.5211003e-08
2.3173492e-05
7.0694877e-08
7.3463619e-08
2.3097745e-05
6.9960218e-08
7.1770073e-08
2.3023418e-05
6.9227986e-08
7.0126997e-08
2.2950477e-05
6.8503527e-08
6.8531184e-08
2.2878889e-05
6.7802877e-08
6.6979689e-08
2.2808619e-05
6.7165083e-08
6.5471571e-08
2.2739625e-05
6.6675251e-08
6.4013344e-08
2.267185e-05
6.6507078e-08
6.2642272e-08
2.2605149e-05
6.6990739e-08
6.1532375e-08
2.2538888e-05
6.8686014e-08
6.1499892e-08
2.2471121e-05
7.2226997e-08
6.4845118e-08
7.6722819e-08
9.8461339e-08
0.0001051979
1.3340884e-06
6.4961221e-06
9.9496561e-05
2.3731022e-06
6.6011947e-06
9.4262459e-05
2.9019223e-06
6.1610799e-06
8.9251186e-05
3.0856642e-06
5.9094196e-06
8.4493498e-05
3.0947347e-06
5.6224614e-06
8.0033635e-05
2.9846657e-06
5.2651341e-06
7.5876907e-05
2.7790155e-06
4.8792667e-06
7.2014635e-05
2.5106844e-06
4.4927895e-06
6.8436293e-05
2.2128728e-06
4.1169489e-06
6.5131387e-05
1.9107259e-06
3.7575291e-06
6.208941e-05
1.621732e-06
3.4186596e-06
5.9299432e-05
1.3573877e-06
3.1029661e-06
5.6749589e-05
1.1240344e-06
2.8116386e-06
5.4426788e-05
9.2377946e-07
2.5448158e-06
5.2316754e-05
7.55728e-07
2.3019466e-06
5.0404313e-05
6.1717855e-07
2.0820302e-06
4.8673788e-05
5.045435e-07
1.8837772e-06
4.7109414e-05
4.1397182e-07
1.7057274e-06
4.5695713e-05
3.4173651e-07
1.5463363e-06
4.4417792e-05
2.8445147e-07
1.4040359e-06
4.3261575e-05
2.3917117e-07
1.2772781e-06
4.2213953e-05
2.0341506e-07
1.1645652e-06
4.1262871e-05
1.7514744e-07
1.0644718e-06
4.039737e-05
1.5273233e-07
9.7565898e-07
3.9607583e-05
1.3487531e-07
8.9688147e-07
3.8884688e-05
1.2055568e-07
8.2701639e-07
3.8220848e-05
1.0901089e-07
7.6501856e-07
3.7609155e-05
9.9633798e-08
7.0994486e-07
3.7043542e-05
9.1977431e-08
6.6095087e-07
3.6518702e-05
8.5705799e-08
6.1728289e-07
3.6030009e-05
8.0552401e-08
5.7827311e-07
3.5573433e-05
7.6308249e-08
5.4333413e-07
3.5145475e-05
7.2811278e-08
5.119503e-07
3.4743091e-05
6.9934134e-08
4.8367026e-07
3.4363641e-05
6.7575437e-08
4.5810067e-07
3.4004828e-05
6.5652895e-08
4.3489998e-07
3.3664659e-05
6.4098593e-08
4.137721e-07
3.3341393e-05
6.2855906e-08
3.9446094e-07
3.3033513e-05
6.1877024e-08
3.7674524e-07
3.2739693e-05
6.112108e-08
3.6043422e-07
3.2458768e-05
6.0553079e-08
3.4536327e-07
3.2189712e-05
6.0142667e-08
3.3139055e-07
3.1931622e-05
5.9863661e-08
3.1839377e-07
3.1683696e-05
5.9693173e-08
3.0626736e-07
3.1445219e-05
5.961122e-08
2.9492012e-07
3.1215555e-05
5.960063e-08
2.8427315e-07
3.0994132e-05
5.9646547e-08
2.7425808e-07
3.0780436e-05
5.9736174e-08
2.6481541e-07
3.0574002e-05
5.9858649e-08
2.5589336e-07
3.0374407e-05
6.0004935e-08
2.4744661e-07
3.0181267e-05
6.0167616e-08
2.3943551e-07
2.9994229e-05
6.0341241e-08
2.3182485e-07
2.9812971e-05
6.0521806e-08
2.2458375e-07
2.9637193e-05
6.0704454e-08
2.1768457e-07
2.9466629e-05
6.0867306e-08
2.1110461e-07
2.9301024e-05
6.1016983e-08
2.0482179e-07
2.914014e-05
6.1160882e-08
1.9881571e-07
2.8983756e-05
6.1294926e-08
1.9306836e-07
2.8831669e-05
6.1415462e-08
1.8756387e-07
2.8683688e-05
6.1520994e-08
1.8228765e-07
2.8539633e-05
6.1610562e-08
1.7722633e-07
2.8399336e-05
6.1683778e-08
1.7236781e-07
2.8262639e-05
6.1740464e-08
1.6770087e-07
2.8129394e-05
6.1780698e-08
1.6321519e-07
2.7999461e-05
6.1803884e-08
1.5890119e-07
2.7872709e-05
6.1807349e-08
1.5475034e-07
2.7749012e-05
6.1793549e-08
1.5075441e-07
2.7628253e-05
6.1764786e-08
1.4690558e-07
2.7510319e-05
6.1720997e-08
1.431966e-07
2.7395105e-05
6.1662112e-08
1.3962083e-07
2.728251e-05
6.1588627e-08
1.3617201e-07
2.7172439e-05
6.1501061e-08
1.3284422e-07
2.7064802e-05
6.1399973e-08
1.2963193e-07
2.6959511e-05
6.1285928e-08
1.2652991e-07
2.6856486e-05
6.1159514e-08
1.2353326e-07
2.6755649e-05
6.102131e-08
1.2063732e-07
2.6656924e-05
6.0871858e-08
1.1783765e-07
2.6560242e-05
6.0711703e-08
1.1513012e-07
2.6465535e-05
6.0541385e-08
1.1251081e-07
2.6372738e-05
6.0361314e-08
1.0997581e-07
2.6281791e-05
6.0171947e-08
1.075216e-07
2.6192636e-05
5.9973535e-08
1.0514468e-07
2.6105215e-05
5.97663e-08
1.0284179e-07
2.6019477e-05
5.9550254e-08
1.0060969e-07
2.5935371e-05
5.9325131e-08
9.8445268e-08
2.585285e-05
5.9090483e-08
9.6345388e-08
2.5771868e-05
5.8845495e-08
9.4306935e-08
2.5692384e-05
5.8589026e-08
9.2326758e-08
2.5614357e-05
5.8319795e-08
9.0401428e-08
2.5537753e-05
5.8037094e-08
8.8527331e-08
2.5462539e-05
5.7741632e-08
8.6700201e-08
2.5388689e-05
5.7438403e-08
8.4915167e-08
2.5316184e-05
5.714144e-08
8.3166638e-08
2.5245017e-05
5.6882612e-08
8.1449634e-08
2.51752e-05
5.6726041e-08
7.9765809e-08
2.510677e-05
5.6787904e-08
7.8149164e-08
2.5039729e-05
5.7251588e-08
7.678096e-08
2.4973573e-05
5.8330935e-08
7.6510223e-08
2.4906079e-05
5.9989504e-08
7.973217e-08
6.0714998e-08
1.1287823e-07
0.00010503672
9.0789371e-07
6.5005614e-06
9.9140653e-05
1.6524914e-06
6.6166802e-06
9.3788329e-05
2.0825241e-06
6.1717217e-06
8.8708526e-05
2.2549373e-06
5.91053e-06
8.3909682e-05
2.278404e-06
5.6151748e-06
7.9437109e-05
2.2074821e-06
5.2497564e-06
7.5296201e-05
2.0645348e-06
4.8553893e-06
7.1474034e-05
1.8722543e-06
4.4605969e-06
6.7955013e-05
1.6547667e-06
4.0771269e-06
6.4723621e-05
1.4313505e-06
3.7107669e-06
6.1764423e-05
1.2154297e-06
3.3655007e-06
5.9062056e-05
1.015864e-06
3.0438911e-06
5.6601108e-05
8.378274e-07
2.7471548e-06
5.4365944e-05
6.8344644e-07
2.475497e-06
5.2340648e-05
5.5258528e-07
2.2284383e-06
5.0509125e-05
4.4366547e-07
2.0050361e-06
4.8855299e-05
3.5433456e-07
1.8040352e-06
4.7363353e-05
2.8193591e-07
1.6239821e-06
4.6017963e-05
2.2381343e-07
1.4633127e-06
4.4804503e-05
1.7749382e-07
1.3204181e-06
4.3709199e-05
1.4078091e-07
1.1936935e-06
4.2719248e-05
1.1179157e-07
1.081575e-06
4.1822875e-05
8.8954547e-08
9.8256581e-07
4.1009364e-05
7.0988016e-08
8.952547e-07
4.0269054e-05
5.6861851e-08
8.183238e-07
3.9593306e-05
4.5719131e-08
7.5058475e-07
3.8974405e-05
3.6977852e-08
6.9093438e-07
3.8405585e-05
3.006738e-08
6.3838632e-07
3.7880869e-05
2.4650857e-08
5.9204242e-07
3.7395029e-05
2.0440011e-08
5.5110609e-07
3.6943514e-05
1.7190313e-08
5.1487714e-07
3.6522366e-05
1.4716736e-08
4.8273957e-07
3.6128148e-05
1.2874772e-08
4.5415391e-07
3.5757883e-05
1.1549926e-08
4.2864945e-07
3.5408991e-05
1.0650796e-08
4.0581706e-07
3.5079238e-05
1.0103646e-08
3.8530229e-07
3.4766689e-05
9.8482589e-09
3.6679878e-07
3.4469668e-05
9.8350985e-09
3.5004236e-07
3.4186716e-05
1.0022903e-08
3.3480552e-07
3.3916567e-05
1.0377046e-08
3.2089288e-07
3.3658116e-05
1.0868091e-08
3.081366e-07
3.3410395e-05
1.1470997e-08
2.963928e-07
3.3172556e-05
1.2164268e-08
2.8553827e-07
3.2943852e-05
1.2929332e-08
2.754672e-07
3.2723625e-05
1.375016e-08
2.6608895e-07
3.2511286e-05
1.4613096e-08
2.5732572e-07
3.2306316e-05
1.5506272e-08
2.4911067e-07
3.2108246e-05
1.6419591e-08
2.4138624e-07
3.1916658e-05
1.7344657e-08
2.3410271e-07
3.1731171e-05
1.8274338e-08
2.272171e-07
3.1551444e-05
1.920319e-08
2.2069213e-07
3.1377162e-05
2.0127748e-08
2.1449507e-07
3.1208038e-05
2.1048657e-08
2.0859679e-07
3.10438e-05
2.1972787e-08
2.0297055e-07
3.0884232e-05
2.2827855e-08
1.9760735e-07
3.0729103e-05
2.3662978e-08
1.9248228e-07
3.05782e-05
2.4489999e-08
1.875738e-07
3.0431331e-05
2.5296306e-08
1.8286766e-07
3.0288318e-05
2.6077966e-08
1.7835077e-07
3.0148994e-05
2.6834262e-08
1.7401107e-07
3.0013202e-05
2.7564697e-08
1.6983752e-07
2.9880797e-05
2.8268972e-08
1.6582024e-07
2.975164e-05
2.8947421e-08
1.6195012e-07
2.9625601e-05
2.9600765e-08
1.5821893e-07
2.9502557e-05
3.0228531e-08
1.5461917e-07
2.9382396e-05
3.0823539e-08
1.5114463e-07
2.9265007e-05
3.1393106e-08
1.4778878e-07
2.9150287e-05
3.193958e-08
1.4454538e-07
2.9038137e-05
3.2461877e-08
1.41409e-07
2.8928465e-05
3.2960073e-08
1.383746e-07
2.8821181e-05
3.3434688e-08
1.3543747e-07
2.8716203e-05
3.3886334e-08
1.3259328e-07
2.8613449e-05
3.4315526e-08
1.2983785e-07
2.8512845e-05
3.472285e-08
1.2716736e-07
2.8414317e-05
3.5108954e-08
1.2457815e-07
2.8317797e-05
3.5474444e-08
1.2206679e-07
2.8223219e-05
3.5819871e-08
1.1963008e-07
2.813052e-05
3.6145895e-08
1.1726491e-07
2.803964e-05
3.645303e-08
1.1496841e-07
2.7950522e-05
3.6741871e-08
1.1273774e-07
2.7863111e-05
3.7012791e-08
1.1057028e-07
2.7777354e-05
3.7266215e-08
1.0846341e-07
2.7693204e-05
3.7502452e-08
1.0641473e-07
2.761061e-05
3.7721589e-08
1.0442174e-07
2.752953e-05
3.7923514e-08
1.0248201e-07
2.7449919e-05
3.8107957e-08
1.0059304e-07
2.7371738e-05
3.8274286e-08
9.87523e-08
2.7294949e-05
3.8421579e-08
9.6956912e-08
2.7219516e-05
3.8548762e-08
9.5203636e-08
2.714541e-05
3.8655139e-08
9.3488609e-08
2.7072603e-05
3.8741147e-08
9.180698e-08
2.7001079e-05
3.881026e-08
9.0152307e-08
2.6930832e-05
3.8872141e-08
8.851658e-08
2.6861876e-05
3.8947406e-08
8.6890551e-08
2.679426e-05
3.9073529e-08
8.5269197e-08
2.6728065e-05
3.9306936e-08
8.3675941e-08
2.6663337e-05
3.9708311e-08
8.2271168e-08
2.659956e-05
4.0271988e-08
8.1836201e-08
2.6534295e-05
4.0698016e-08
8.4555716e-08
3.9620853e-08
1.1507129e-07
0.00010494757
5.6811079e-07
6.5033076e-06
9.8925416e-05
1.0462983e-06
6.6283517e-06
9.3480449e-05
1.3439844e-06
6.1835065e-06
8.8341777e-05
1.4751324e-06
5.9184763e-06
8.3502084e-05
1.4993911e-06
5.6187065e-06
7.9004057e-05
1.4572411e-06
5.2482679e-06
7.4853978e-05
1.3667382e-06
4.8478757e-06
7.1037378e-05
1.2423973e-06
4.4464569e-06
6.7536063e-05
1.0997693e-06
4.0563128e-06
6.4331998e-05
9.519236e-07
3.6834909e-06
6.1407318e-05
8.0805756e-07
3.3320524e-06
5.8744339e-05
6.7422201e-07
3.0046209e-06
5.6325632e-05
5.5404395e-07
2.7024907e-06
5.4133973e-05
4.4916745e-07
2.4259383e-06
5.2152298e-05
3.5972398e-07
2.174536e-06
5.0363747e-05
2.8484512e-07
1.9473718e-06
4.875178e-05
2.2310005e-07
1.7432015e-06
4.7300339e-05
1.7281165e-07
1.5605647e-06
4.5994012e-05
1.3226571e-07
1.3978748e-06
4.4818177e-05
9.9840017e-08
1.2534891e-06
4.3759121e-05
7.4075608e-08
1.1257614e-06
4.2804123e-05
5.3707656e-08
1.0130814e-06
4.1941503e-05
3.7671226e-08
9.1390375e-07
4.1160627e-05
2.5096478e-08
8.2676732e-07
4.0451891e-05
1.529418e-08
7.5030388e-07
3.980679e-05
7.5281789e-09
6.8329171e-07
3.9217543e-05
1.6727647e-09
6.24552e-07
3.8677513e-05
-3.0331157e-09
5.7313081e-07
3.8180739e-05
-6.6486699e-09
5.2807353e-07
3.7722004e-05
-9.3594846e-09
4.8853453e-07
3.7296777e-05
-1.1371778e-08
4.5378928e-07
3.6901113e-05
-1.2818214e-08
4.2319913e-07
3.6531588e-05
-1.3805302e-08
3.9620478e-07
3.6185236e-05
-1.4417495e-08
3.7231873e-07
3.5859491e-05
-1.4721907e-08
3.5111776e-07
3.5552132e-05
-1.4772638e-08
3.3223577e-07
3.5261237e-05
-1.4613924e-08
3.1535727e-07
3.4985143e-05
-1.4282159e-08
3.002109e-07
3.472241e-05
-1.3807668e-08
2.8656375e-07
3.4471787e-05
-1.3215876e-08
2.742163e-07
3.4232185e-05
-1.2528166e-08
2.6299767e-07
3.4002657e-05
-1.1762778e-08
2.5276171e-07
3.3782373e-05
-1.0935216e-08
2.4338336e-07
3.3570606e-05
-1.0058763e-08
2.3475557e-07
3.3366714e-05
-9.1447017e-09
2.2678673e-07
3.3170131e-05
-8.2027857e-09
2.1939836e-07
3.2980356e-05
-7.2411931e-09
2.1252301e-07
3.279694e-05
-6.2668424e-09
2.0610283e-07
3.2619482e-05
-5.2855377e-09
2.0008785e-07
3.2447623e-05
-4.3018247e-09
1.944348e-07
3.228104e-05
-3.3190519e-09
1.8910587e-07
3.2119438e-05
-2.3382959e-09
1.8406737e-07
3.1962554e-05
-1.3530564e-09
1.7928646e-07
3.1810075e-05
-2.7632475e-10
1.7472765e-07
3.1661878e-05
5.8582899e-10
1.7043903e-07
3.1517732e-05
1.4356038e-09
1.6637295e-07
3.1377429e-05
2.3038136e-09
1.6248959e-07
3.1240792e-05
3.1586449e-09
1.5877485e-07
3.1107656e-05
3.9970013e-09
1.5521718e-07
3.0977867e-05
4.8171708e-09
1.5180547e-07
3.0851284e-05
5.6179805e-09
1.4852966e-07
3.0727774e-05
6.3990304e-09
1.4538079e-07
3.0607209e-05
7.1609127e-09
1.4235053e-07
3.0489473e-05
7.9059196e-09
1.3943123e-07
3.037445e-05
8.6357076e-09
1.3661575e-07
3.0262049e-05
9.3206671e-09
1.3390396e-07
3.0152163e-05
9.9938254e-09
1.3128568e-07
3.0044697e-05
1.0650397e-08
1.2875515e-07
2.9939564e-05
1.1286727e-08
1.263083e-07
2.983668e-05
1.1903179e-08
1.2394085e-07
2.9735965e-05
1.2500128e-08
1.2164884e-07
2.9637345e-05
1.3077854e-08
1.1942844e-07
2.9540748e-05
1.3636715e-08
1.1727616e-07
2.9446105e-05
1.4177003e-08
1.1518882e-07
2.9353352e-05
1.4699169e-08
1.1316339e-07
2.9262425e-05
1.5203535e-08
1.1119704e-07
2.9173268e-05
1.5690459e-08
1.0928708e-07
2.9085822e-05
1.6160354e-08
1.0743108e-07
2.9000035e-05
1.6613565e-08
1.0562667e-07
2.8915855e-05
1.7050359e-08
1.0387155e-07
2.8833233e-05
1.7471074e-08
1.0216364e-07
2.8752123e-05
1.7875957e-08
1.0050079e-07
2.8672479e-05
1.8265083e-08
9.8881091e-08
2.8594259e-05
1.8638505e-08
9.7302479e-08
2.8517424e-05
1.8996187e-08
9.5762937e-08
2.8441934e-05
1.9337802e-08
9.4260347e-08
2.8367753e-05
1.9662808e-08
9.2792323e-08
2.8294848e-05
1.9970484e-08
9.1356275e-08
2.8223187e-05
2.0260021e-08
8.9948863e-08
2.8152746e-05
2.0530732e-08
8.8565925e-08
2.8083503e-05
2.0782626e-08
8.7201824e-08
2.8015447e-05
2.1017524e-08
8.5848671e-08
2.7948582e-05
2.1240717e-08
8.449583e-08
2.7882937e-05
2.1462715e-08
8.3129523e-08
2.7818574e-05
2.1699959e-08
8.1736544e-08
2.7755588e-05
2.196925e-08
8.0324398e-08
2.7694014e-05
2.2266163e-08
7.9016062e-08
2.7633299e-05
2.2506287e-08
7.8480659e-08
2.7571004e-05
2.2393402e-08
8.0599472e-08
2.0993043e-08
1.0779943e-07
0.00010489986
2.7443376e-07
6.5049155e-06
9.8802772e-05
5.0716631e-07
6.6362236e-06
9.329591e-05
6.5854973e-07
6.1922972e-06
8.8116302e-05
7.2902545e-07
5.9257148e-06