/*--------------------------------*- C++ -*----------------------------------*\
  =========                 |
  \\      /  F ield         | OpenFOAM: The Open Source CFD Toolbox
   \\    /   O peration     | Website:  https://openfoam.org
    \\  /    A nd           | Version:  7
     \\/     M anipulation  |
\*---------------------------------------------------------------------------*/
FoamFile
{
    version     2.0;
    format      ascii;
    class       volVectorField;
    location    "150/water";
    object      U;
}
// * * * * * * * * * * * * * * * * * * * * * * * * * * * * * * * * * * * * * //

dimensions      [0 1 -1 0 0 0 0];

internalField   nonuniform List<vector> 
54000
(
(0.0090020934 0.00020305973 0.00020444027)
(0.0083186447 0.00023622738 0.00023904411)
(0.0073695241 0.00021363852 0.00021763527)
(0.0063566114 0.00018488016 0.00018965819)
(0.0054486673 0.00015530836 0.00016048633)
(0.0046741594 0.00012529952 0.00013052937)
(0.0040193038 9.7052611e-05 0.00010203017)
(0.0034740067 7.2578999e-05 7.7073287e-05)
(0.0030302461 5.2876126e-05 5.6738329e-05)
(0.0026757323 3.806815e-05 4.1216512e-05)
(0.0023947254 2.7637704e-05 3.0037141e-05)
(0.0021713898 2.0689034e-05 2.2336508e-05)
(0.0019919695 1.6236161e-05 1.7152703e-05)
(0.0018455015 1.3416236e-05 1.3643173e-05)
(0.0017237326 1.1582489e-05 1.1179123e-05)
(0.0016206928 1.0304892e-05 9.3455812e-06)
(0.0015321593 9.3257908e-06 7.8957152e-06)
(0.0014551546 8.505296e-06 6.6953097e-06)
(0.0013875459 7.7746331e-06 5.6760578e-06)
(0.0013277612 7.1034273e-06 4.8034862e-06)
(0.001274601 6.4798499e-06 4.0581572e-06)
(0.0012271179 5.899945e-06 3.4261573e-06)
(0.0011845424 5.3625302e-06 2.8950713e-06)
(0.001146235 4.8670215e-06 2.4526294e-06)
(0.0011116558 4.4125992e-06 2.0869761e-06)
(0.0010803434 3.9980126e-06 1.7867445e-06)
(0.0010519002 3.6214596e-06 1.5416116e-06)
(0.0010259819 3.2805941e-06 1.342185e-06)
(0.001002289 2.9733959e-06 1.1797306e-06)
(0.00098056199 2.6979494e-06 1.0463197e-06)
(0.00096057572 2.4519211e-06 9.3658908e-07)
(0.00094213242 2.2325666e-06 8.4693403e-07)
(0.00092505792 2.0373867e-06 7.7316644e-07)
(0.00090920047 1.8640895e-06 7.1184233e-07)
(0.00089442818 1.7104628e-06 6.6046709e-07)
(0.0008806259 1.574383e-06 6.1707465e-07)
(0.00086769295 1.4538615e-06 5.800534e-07)
(0.00085554128 1.3470709e-06 5.481156e-07)
(0.00084409387 1.2523493e-06 5.2023839e-07)
(0.00083328322 1.1681983e-06 4.9562716e-07)
(0.00082305015 1.0932616e-06 4.7365325e-07)
(0.00081334267 1.0262286e-06 4.5378283e-07)
(0.00080411486 9.6585846e-07 4.3554555e-07)
(0.00079532615 9.1131048e-07 4.1865169e-07)
(0.0007869407 8.6191725e-07 4.0290751e-07)
(0.00077892675 8.170831e-07 3.881688e-07)
(0.00077125603 7.7627668e-07 3.7432179e-07)
(0.0007639033 7.3902684e-07 3.6127562e-07)
(0.00075684598 7.0491483e-07 3.4896319e-07)
(0.00075006373 6.7357481e-07 3.3733129e-07)
(0.00074353822 6.4469365e-07 3.2633722e-07)
(0.00073725294 6.1802504e-07 3.1581892e-07)
(0.00073119314 5.93348e-07 3.057433e-07)
(0.00072534528 5.7041922e-07 2.962116e-07)
(0.00071969687 5.4902523e-07 2.8716674e-07)
(0.00071423653 5.2901425e-07 2.7854384e-07)
(0.00070895386 5.1027334e-07 2.7031145e-07)
(0.00070383928 4.926875e-07 2.6244811e-07)
(0.00069888397 4.7614507e-07 2.5493163e-07)
(0.00069407976 4.6054992e-07 2.4774206e-07)
(0.00068941911 4.4582047e-07 2.4086364e-07)
(0.00068489502 4.3188471e-07 2.3427612e-07)
(0.00068050098 4.1867968e-07 2.2796345e-07)
(0.00067623091 4.0614782e-07 2.219114e-07)
(0.00067207916 3.9423499e-07 2.1610449e-07)
(0.00066804043 3.82897e-07 2.1053104e-07)
(0.00066410977 3.720948e-07 2.0517778e-07)
(0.00066028252 3.6179437e-07 2.0003268e-07)
(0.0006565543 3.5196223e-07 1.9508271e-07)
(0.000652921 3.4256892e-07 1.9031766e-07)
(0.00064937873 3.3358607e-07 1.857278e-07)
(0.00064592385 3.2498796e-07 1.8130559e-07)
(0.00064255289 3.1675208e-07 1.7703998e-07)
(0.00063926261 3.0885647e-07 1.7292519e-07)
(0.00063604993 3.0128351e-07 1.6895092e-07)
(0.00063291192 2.9401365e-07 1.6511147e-07)
(0.00062984582 2.8703189e-07 1.6139838e-07)
(0.00062684903 2.8032282e-07 1.5780351e-07)
(0.00062391907 2.738719e-07 1.5432085e-07)
(0.00062105357 2.6766537e-07 1.5094324e-07)
(0.00061825033 2.6169449e-07 1.4766172e-07)
(0.00061550725 2.5594606e-07 1.4446946e-07)
(0.00061282233 2.5040803e-07 1.4136027e-07)
(0.0006101937 2.4506903e-07 1.3832421e-07)
(0.00060761962 2.3991955e-07 1.3535596e-07)
(0.00060509843 2.3494655e-07 1.3244955e-07)
(0.0006026286 2.3013581e-07 1.295988e-07)
(0.0006002087 2.2547061e-07 1.2680409e-07)
(0.00059783741 2.2093082e-07 1.2407534e-07)
(0.00059551345 2.164979e-07 1.2143387e-07)
(0.00059323552 2.1214889e-07 1.1893015e-07)
(0.00059100211 2.0787112e-07 1.1666228e-07)
(0.00058881112 2.0369065e-07 1.1483014e-07)
(0.00058665896 1.9973059e-07 1.1382017e-07)
(0.00058453868 1.9638414e-07 1.1441106e-07)
(0.00058243501 1.9487312e-07 1.1837282e-07)
(0.00058031396 1.9977455e-07 1.3094459e-07)
(0.00057811611 2.2258429e-07 1.6397605e-07)
(0.0005756637 1.9706912e-07 1.5080619e-07)
(0.00056906204 7.8896236e-07 7.532232e-07)
(0.0095316863 0.0003313754 0.00022336697)
(0.0092716504 0.00041105942 0.00027052342)
(0.0087756651 0.00040317187 0.00026060062)
(0.0081527518 0.00038218754 0.00024252081)
(0.0075302151 0.00035309574 0.00022101124)
(0.0069425889 0.00031541063 0.00019648834)
(0.006391209 0.00027309198 0.00017102969)
(0.0058791845 0.00023030694 0.00014652546)
(0.0054120202 0.00019001854 0.00012410997)
(0.0049926512 0.00015423459 0.00010436627)
(0.004620592 0.00012408347 8.7479016e-05)
(0.0042931332 9.9809403e-05 7.3327495e-05)
(0.0040063965 8.0956424e-05 6.1601503e-05)
(0.0037559538 6.667221e-05 5.1918794e-05)
(0.0035372541 5.5985801e-05 4.3907445e-05)
(0.003345947 4.7992056e-05 3.7246645e-05)
(0.0031780884 4.1941709e-05 3.1677529e-05)
(0.0030302311 3.7262446e-05 2.699792e-05)
(0.0028994324 3.3540996e-05 2.3051138e-05)
(0.0027832152 3.0490243e-05 1.9714593e-05)
(0.0026795075 2.7915735e-05 1.6890543e-05)
(0.0025865783 2.5687841e-05 1.4499382e-05)
(0.002502978 2.3720893e-05 1.2475014e-05)
(0.0024274871 2.1958431e-05 1.0761724e-05)
(0.0023590736 2.0362992e-05 9.312232e-06)
(0.0022968589 1.8909454e-05 8.0861287e-06)
(0.0022400906 1.7580767e-05 7.0489626e-06)
(0.0021881216 1.6364899e-05 6.1714984e-06)
(0.0021403932 1.5251964e-05 5.4283137e-06)
(0.0020964214 1.423385e-05 4.7973496e-06)
(0.0020557868 1.3303041e-05 4.2604816e-06)
(0.0020181236 1.2451986e-05 3.8027036e-06)
(0.0019831119 1.1673909e-05 3.410961e-06)
(0.0019504718 1.0962755e-05 3.0744207e-06)
(0.0019199589 1.0312855e-05 2.7842601e-06)
(0.0018913593 9.7188339e-06 2.5331804e-06)
(0.0018644851 9.175645e-06 2.3150731e-06)
(0.0018391716 8.6785719e-06 2.1248309e-06)
(0.0018152735 8.2232418e-06 1.9581834e-06)
(0.001792663 7.8056199e-06 1.8115669e-06)
(0.0017712268 7.4219973e-06 1.6820116e-06)
(0.001750865 7.0689356e-06 1.5670701e-06)
(0.0017314886 6.7432685e-06 1.4647425e-06)
(0.0017130186 6.4422733e-06 1.3732754e-06)
(0.0016953848 6.1635577e-06 1.2911593e-06)
(0.0016785241 5.9049783e-06 1.2171202e-06)
(0.00166238 5.66461e-06 1.1500842e-06)
(0.0016469019 5.4407258e-06 1.0891488e-06)
(0.001632044 5.2317774e-06 1.0335532e-06)
(0.0016177648 5.0363839e-06 9.8265361e-07)
(0.0016040271 4.8533219e-06 9.3589472e-07)
(0.0015907965 4.681562e-06 8.9273793e-07)
(0.0015780424 4.5201571e-06 8.5278653e-07)
(0.0015657364 4.3681537e-06 8.1577011e-07)
(0.0015538526 4.2246825e-06 7.8138512e-07)
(0.0015423672 4.0890602e-06 7.4934516e-07)
(0.0015312583 3.9607287e-06 7.1941266e-07)
(0.0015205058 3.8391517e-06 6.9138684e-07)
(0.0015100909 3.7238124e-06 6.6509478e-07)
(0.0014999963 3.6142435e-06 6.4037945e-07)
(0.001490206 3.510029e-06 6.1710786e-07)
(0.0014807053 3.4107985e-06 5.9515979e-07)
(0.00147148 3.3162137e-06 5.7442726e-07)
(0.0014625175 3.2259612e-06 5.5481449e-07)
(0.0014538055 3.1397556e-06 5.3623482e-07)
(0.0014453328 3.0573354e-06 5.186133e-07)
(0.0014370889 2.9784707e-06 5.0187808e-07)
(0.0014290637 2.9029588e-06 4.8596781e-07)
(0.001421248 2.8306029e-06 4.7082321e-07)
(0.001413633 2.7612184e-06 4.5639244e-07)
(0.0014062104 2.6946346e-06 4.4262701e-07)
(0.0013989723 2.6306929e-06 4.2948686e-07)
(0.0013919116 2.5692473e-06 4.1692966e-07)
(0.0013850211 2.5101651e-06 4.0492118e-07)
(0.0013782945 2.4533211e-06 3.9342574e-07)
(0.0013717253 2.3985973e-06 3.824122e-07)
(0.0013653078 2.3458877e-06 3.7185278e-07)
(0.0013590364 2.2950897e-06 3.6171854e-07)
(0.0013529058 2.2461086e-06 3.5198477e-07)
(0.0013469109 2.1988526e-06 3.4262668e-07)
(0.0013410471 2.1532439e-06 3.3362096e-07)
(0.0013353099 2.1091974e-06 3.2494553e-07)
(0.0013296949 2.0666392e-06 3.1657986e-07)
(0.0013241982 2.0254889e-06 3.0850114e-07)
(0.001318816 1.985674e-06 3.0069167e-07)
(0.0013135446 1.947114e-06 2.9313175e-07)
(0.0013083807 1.9097266e-06 2.8580626e-07)
(0.0013033213 1.8734235e-06 2.787032e-07)
(0.0012983632 1.8381128e-06 2.7181658e-07)
(0.0012935038 1.8037104e-06 2.6515448e-07)
(0.0012887402 1.7701666e-06 2.5874282e-07)
(0.0012840698 1.7375297e-06 2.5264998e-07)
(0.0012794889 1.7061186e-06 2.4701322e-07)
(0.0012749925 1.6769058e-06 2.4211351e-07)
(0.001270572 1.652464e-06 2.3851884e-07)
(0.0012662098 1.639329e-06 2.3765978e-07)
(0.0012618709 1.6545724e-06 2.445824e-07)
(0.001257496 1.7463674e-06 2.7712464e-07)
(0.0012529717 2.0376668e-06 2.6526405e-07)
(0.0012433359 2.9514769e-06 1.3525293e-06)
(0.0095221617 0.00021179965 0.00022180581)
(0.009269783 0.00029872516 0.00026628967)
(0.0088657772 0.00031669844 0.00025526743)
(0.0083755729 0.000317438 0.00023864265)
(0.0078888426 0.00030841043 0.00021987851)
(0.0074276349 0.00028848207 0.00019850457)
(0.006988258 0.00026048391 0.00017617916)
(0.0065698164 0.00022855168 0.00015444521)
(0.0061756011 0.00019596771 0.00013413534)
(0.0058087146 0.00016504408 0.00011567593)
(0.0054706295 0.00013728621 9.9270839e-05)
(0.0051615551 0.00011345265 8.494783e-05)
(0.0048808654 9.3684506e-05 7.2600737e-05)
(0.0046272998 7.7712987e-05 6.2044901e-05)
(0.0043991196 6.5057025e-05 5.3064543e-05)
(0.0041942886 5.5163887e-05 4.544363e-05)
(0.0040106431 4.7493345e-05 3.8982753e-05)
(0.0038460219 4.1561377e-05 3.3506381e-05)
(0.0036983537 3.6958194e-05 2.8864075e-05)
(0.0035657105 3.3351175e-05 2.4928487e-05)
(0.0034463343 3.0479503e-05 2.1592135e-05)
(0.003338646 2.8144769e-05 1.8764099e-05)
(0.003241243 2.6200156e-05 1.6367138e-05)
(0.0031528887 2.4539752e-05 1.4335369e-05)
(0.0030724986 2.3088866e-05 1.2612489e-05)
(0.0029991252 2.1796112e-05 1.1150134e-05)
(0.0029319421 2.0626904e-05 9.9064813e-06)
(0.0028702292 1.9558164e-05 8.8458155e-06)
(0.0028133589 1.8574038e-05 7.9385374e-06)
(0.0027607855 1.7663623e-05 7.1598235e-06)
(0.0027120345 1.6818834e-05 6.4890363e-06)
(0.0026666927 1.6033066e-05 5.9090209e-06)
(0.0026243991 1.5301096e-05 5.4052727e-06)
(0.0025848383 1.4618819e-05 4.9656525e-06)
(0.0025477347 1.3982713e-05 4.5801136e-06)
(0.0025128472 1.3389543e-05 4.2403261e-06)
(0.002479964 1.2836281e-05 3.939355e-06)
(0.0024488994 1.2320057e-05 3.6714252e-06)
(0.0024194896 1.1838144e-05 3.4317262e-06)
(0.00239159 1.1387939e-05 3.2162506e-06)
(0.0023650729 1.0966984e-05 3.0216593e-06)
(0.0023398248 1.0572998e-05 2.8451741e-06)
(0.0023157449 1.0203874e-05 2.6844736e-06)
(0.0022927433 9.8575818e-06 2.5375947e-06)
(0.0022707398 9.5322161e-06 2.4028633e-06)
(0.002249662 9.2260286e-06 2.2788672e-06)
(0.0022294453 8.9374195e-06 2.1644006e-06)
(0.0022100312 8.6649289e-06 2.0584376e-06)
(0.0021913666 8.4072381e-06 1.9601006e-06)
(0.0021734038 8.1631546e-06 1.8686312e-06)
(0.0021560989 7.9316211e-06 1.7833671e-06)
(0.0021394122 7.7117244e-06 1.703709e-06)
(0.0021233074 7.5026024e-06 1.6291518e-06)
(0.0021077512 7.3033792e-06 1.5592841e-06)
(0.0020927129 7.1131877e-06 1.4937202e-06)
(0.0020781645 6.9314166e-06 1.4321039e-06)
(0.0020640799 6.757605e-06 1.3741134e-06)
(0.0020504351 6.5912602e-06 1.3194604e-06)
(0.0020372075 6.4318783e-06 1.2678953e-06)
(0.0020243766 6.2790062e-06 1.2191865e-06)
(0.0020119231 6.1322413e-06 1.1731323e-06)
(0.001999829 5.9912214e-06 1.1295428e-06)
(0.0019880776 5.8556141e-06 1.0882498e-06)
(0.0019766531 5.7251056e-06 1.049095e-06)
(0.001965541 5.5994095e-06 1.0119373e-06)
(0.0019547276 5.4782459e-06 9.7664604e-07)
(0.0019441999 5.3613915e-06 9.4310075e-07)
(0.0019339458 5.2486493e-06 9.1118868e-07)
(0.0019239539 5.1398197e-06 8.8080767e-07)
(0.0019142135 5.0347039e-06 8.5185952e-07)
(0.0019047144 4.9331218e-06 8.2425881e-07)
(0.001895447 4.8349042e-06 7.9792442e-07)
(0.0018864023 4.7398937e-06 7.7278057e-07)
(0.0018775718 4.6479478e-06 7.4875617e-07)
(0.0018689473 4.5589268e-06 7.2578808e-07)
(0.0018605211 4.472704e-06 7.0381563e-07)
(0.0018522861 4.3891579e-06 6.8277903e-07)
(0.0018442353 4.3081741e-06 6.6262676e-07)
(0.0018363621 4.2296437e-06 6.43309e-07)
(0.0018286603 4.1534616e-06 6.2477796e-07)
(0.0018211241 4.0795322e-06 6.0698852e-07)
(0.0018137478 4.0077549e-06 5.8990245e-07)
(0.0018065261 3.9380378e-06 5.7347435e-07)
(0.001799454 3.8702795e-06 5.5766908e-07)
(0.0017925266 3.8043817e-06 5.4244813e-07)
(0.0017857395 3.7402352e-06 5.2778013e-07)
(0.0017790885 3.6777245e-06 5.1363098e-07)
(0.0017725695 3.6167236e-06 4.9997089e-07)
(0.0017661787 3.5571026e-06 4.8677519e-07)
(0.0017599128 3.4987533e-06 4.7402663e-07)
(0.0017537682 3.4416465e-06 4.6171055e-07)
(0.0017477416 3.3859568e-06 4.4983639e-07)
(0.0017418295 3.3323751e-06 4.3844312e-07)
(0.0017360272 3.2827823e-06 4.2764592e-07)
(0.0017303281 3.2417677e-06 4.1776755e-07)
(0.0017247203 3.2200297e-06 4.0999115e-07)
(0.0017191831 3.2421436e-06 4.0985029e-07)
(0.001713691 3.3643325e-06 4.4114455e-07)
(0.0017082 3.7072082e-06 4.7353455e-07)
(0.0016974805 4.4611097e-06 1.8634947e-06)
(0.0095012861 0.00013951169 0.00022248511)
(0.0092133349 0.00022408324 0.00026709763)
(0.0088018509 0.0002570094 0.00025529581)
(0.0083306071 0.00026690691 0.0002382081)
(0.0078754299 0.00026502159 0.00021939837)
(0.0074527063 0.0002529565 0.00019823245)
(0.0070564396 0.00023295893 0.00017634609)
(0.0066827538 0.00020836345 0.0001552305)
(0.006331873 0.00018203354 0.00013558338)
(0.0060047052 0.00015603739 0.00011769036)
(0.0057015056 0.000131804 0.00010166909)
(0.0054220192 0.00011020724 8.7524314e-05)
(0.0051656909 9.1631898e-05 7.5171985e-05)
(0.0049316845 7.6091186e-05 6.4472618e-05)
(0.0047188814 6.3363142e-05 5.5261149e-05)
(0.0045259349 5.3104941e-05 4.7366821e-05)
(0.0043513547 4.4932756e-05 4.0624899e-05)
(0.0041935865 3.847136e-05 3.4883032e-05)
(0.0040510752 3.3381245e-05 3.0003995e-05)
(0.0039223115 2.937051e-05 2.5866181e-05)
(0.0038058643 2.6197263e-05 2.2362868e-05)
(0.0037004012 2.3666731e-05 1.9400962e-05)
(0.0036047 2.1625758e-05 1.6899609e-05)
(0.0035176529 1.9956327e-05 1.4788822e-05)
(0.0034382652 1.8569048e-05 1.3008104e-05)
(0.0033656513 1.7397361e-05 1.1504745e-05)
(0.0032990266 1.6392003e-05 1.0233524e-05)
(0.0032376995 1.5516241e-05 9.1565337e-06)
(0.0031810636 1.4743888e-05 8.2421105e-06)
(0.0031285885 1.4056151e-05 7.4635745e-06)
(0.0030798115 1.3438895e-05 6.7985204e-06)
(0.0030343294 1.2881152e-05 6.228223e-06)
(0.0029917905 1.2374496e-05 5.7369837e-06)
(0.0029518882 1.191242e-05 5.3116668e-06)
(0.0029143553 1.1489692e-05 4.9413536e-06)
(0.0028789586 1.1101928e-05 4.6170008e-06)
(0.0028454946 1.0745379e-05 4.3311222e-06)
(0.0028137847 1.0416774e-05 4.0775281e-06)
(0.0027836727 1.0113218e-05 3.8511077e-06)
(0.0027550209 9.8321211e-06 3.6476453e-06)
(0.0027277081 9.5711585e-06 3.4636639e-06)
(0.002701627 9.3282493e-06 3.2963006e-06)
(0.0026766823 9.1015141e-06 3.143191e-06)
(0.0026527895 8.8892436e-06 3.0023824e-06)
(0.0026298729 8.6898913e-06 2.8722566e-06)
(0.0026078648 8.5020894e-06 2.7514708e-06)
(0.002586704 8.3246174e-06 2.6389097e-06)
(0.0025663358 8.1563969e-06 2.5336423e-06)
(0.0025467102 7.9964777e-06 2.4348845e-06)
(0.002527782 7.8440278e-06 2.3419781e-06)
(0.0025095101 7.6983374e-06 2.2543622e-06)
(0.0024918566 7.5588112e-06 2.171544e-06)
(0.0024747871 7.4248988e-06 2.0931122e-06)
(0.0024582699 7.2960213e-06 2.0187198e-06)
(0.0024422756 7.1714395e-06 1.9480702e-06)
(0.0024267775 7.050928e-06 1.8808988e-06)
(0.0024117506 6.9343764e-06 1.8169529e-06)
(0.0023971715 6.8214894e-06 1.7560018e-06)
(0.0023830185 6.7119556e-06 1.6978517e-06)
(0.0023692714 6.6055383e-06 1.6423277e-06)
(0.0023559116 6.502046e-06 1.5892717e-06)
(0.0023429214 6.4013104e-06 1.5385378e-06)
(0.0023302844 6.3031836e-06 1.4899933e-06)
(0.002317985 6.207527e-06 1.4435164e-06)
(0.0023060089 6.1142057e-06 1.3989928e-06)
(0.0022943424 6.0230699e-06 1.3563249e-06)
(0.0022829727 5.9340602e-06 1.3154148e-06)
(0.0022718877 5.8471312e-06 1.2761699e-06)
(0.002261076 5.7622065e-06 1.2385023e-06)
(0.0022505267 5.6792007e-06 1.2023302e-06)
(0.0022402296 5.5980454e-06 1.167583e-06)
(0.0022301752 5.5186764e-06 1.1341879e-06)
(0.0022203542 5.4410346e-06 1.1020809e-06)
(0.002210758 5.3650663e-06 1.0711994e-06)
(0.0022013784 5.2907221e-06 1.0414857e-06)
(0.0021922076 5.2179523e-06 1.0128838e-06)
(0.0021832381 5.1467143e-06 9.8533958e-07)
(0.0021744628 5.0769612e-06 9.5880412e-07)
(0.0021658752 5.0086536e-06 9.3323201e-07)
(0.0021574688 4.9417467e-06 9.0857571e-07)
(0.0021492375 4.8762e-06 8.8479293e-07)
(0.0021411756 4.811967e-06 8.6184172e-07)
(0.0021332776 4.7489987e-06 8.396809e-07)
(0.0021255383 4.6872379e-06 8.1827276e-07)
(0.0021179527 4.6266188e-06 7.9757876e-07)
(0.0021105161 4.5670633e-06 7.7756207e-07)
(0.0021032242 4.5084769e-06 7.581854e-07)
(0.0020960727 4.4507494e-06 7.3941212e-07)
(0.0020890577 4.3937666e-06 7.2120393e-07)
(0.0020821756 4.3374454e-06 7.0352158e-07)
(0.002075423 4.2818003e-06 6.8632209e-07)
(0.0020687967 4.2271216e-06 6.6956214e-07)
(0.0020622937 4.1743409e-06 6.5320387e-07)
(0.002055911 4.1258e-06 6.372619e-07)
(0.0020496454 4.0868142e-06 6.2198528e-07)
(0.0020434927 4.0687592e-06 6.0874775e-07)
(0.0020374484 4.0948598e-06 6.045223e-07)
(0.002031515 4.2094077e-06 6.3987823e-07)
(0.0020256648 4.4797302e-06 7.1688513e-07)
(0.002014454 4.9057612e-06 2.2695222e-06)
(0.0094902877 9.6726608e-05 0.00022289229)
(0.00917661 0.00016632333 0.00026788105)
(0.0087449456 0.00019969046 0.00025550648)
(0.0082664657 0.00021101604 0.00023762681)
(0.00781215 0.0002109939 0.0002181603)
(0.0073950862 0.0002028236 0.00019646328)
(0.0070087986 0.00018827265 0.00017418493)
(0.006648835 0.00016968865 0.0001528463)
(0.0063142174 0.00014929331 0.00013312182)
(0.0060045996 0.00012875288 0.0001152379)
(0.0057192201 0.00010923292 9.9256791e-05)
(0.0054570682 9.149007e-05 8.5148911e-05)
(0.0052170782 7.5923399e-05 7.2816212e-05)
(0.0049981259 6.264333e-05 6.2119134e-05)
(0.0047989841 5.1561151e-05 5.2900048e-05)
(0.0046183234 4.2472278e-05 4.4997975e-05)
(0.0044547458 3.5118725e-05 3.8256896e-05)
(0.0043068267 2.9230544e-05 3.2530442e-05)
(0.0041731526 2.4550834e-05 2.7684339e-05)
(0.0040523509 2.0849112e-05 2.3597362e-05)
(0.0039431142 1.7926913e-05 2.0161345e-05)
(0.0038442168 1.56186e-05 1.7280681e-05)
(0.0037545253 1.3789365e-05 1.4871531e-05)
(0.0036730042 1.2331759e-05 1.2860862e-05)
(0.0035987172 1.1161539e-05 1.1185211e-05)
(0.0035308247 1.0213367e-05 9.7889739e-06)
(0.0034685786 9.4380825e-06 8.6250713e-06)
(0.0034113173 8.7971273e-06 7.6543148e-06)
(0.0033584589 8.2627206e-06 6.8439396e-06)
(0.0033094933 7.8140815e-06 6.1664554e-06)
(0.0032639753 7.4348252e-06 5.598845e-06)
(0.0032215172 7.112131e-06 5.1219273e-06)
(0.0031817817 6.8360966e-06 4.7197277e-06)
(0.0031444758 6.5990198e-06 4.3789727e-06)
(0.0031093448 6.39478e-06 4.0886808e-06)
(0.0030761678 6.2184051e-06 3.8397981e-06)
(0.0030447526 6.065796e-06 3.6248787e-06)
(0.003014932 5.933527e-06 3.4378173e-06)
(0.0029865602 5.8186973e-06 3.2736175e-06)
(0.0029595097 5.7188193e-06 3.1282044e-06)
(0.002933669 5.6317496e-06 2.9982616e-06)
(0.0029089401 5.5556261e-06 2.8810974e-06)
(0.0028852364 5.4888239e-06 2.7745333e-06)
(0.0028624815 5.4299126e-06 2.6768099e-06)
(0.0028406075 5.3776417e-06 2.586506e-06)
(0.0028195538 5.3309239e-06 2.5024727e-06)
(0.0027992664 5.2888092e-06 2.4237883e-06)
(0.0027796963 5.2504826e-06 2.3497103e-06)
(0.0027607998 5.2152432e-06 2.2796374e-06)
(0.002742537 5.1824978e-06 2.213084e-06)
(0.0027248717 5.1517669e-06 2.1496541e-06)
(0.0027077708 5.122669e-06 2.0890223e-06)
(0.0026912041 5.0948952e-06 2.0309196e-06)
(0.0026751435 5.0680868e-06 1.9751367e-06)
(0.0026595636 5.0410661e-06 1.9215397e-06)
(0.0026444411 5.0142597e-06 1.8699671e-06)
(0.002629754 4.9880184e-06 1.8202523e-06)
(0.0026154815 4.9620724e-06 1.7722782e-06)
(0.0026016045 4.9361412e-06 1.7259592e-06)
(0.0025881054 4.910086e-06 1.6812143e-06)
(0.0025749674 4.8838344e-06 1.6379655e-06)
(0.002562175 4.8573427e-06 1.5961455e-06)
(0.0025497136 4.8305838e-06 1.5556923e-06)
(0.0025375693 4.8035418e-06 1.5165477e-06)
(0.0025257292 4.7761775e-06 1.4786605e-06)
(0.002514181 4.7483862e-06 1.4419858e-06)
(0.0025029134 4.7202769e-06 1.4064824e-06)
(0.0024919153 4.691917e-06 1.3721019e-06)
(0.0024811765 4.6632934e-06 1.338797e-06)
(0.002470687 4.6344055e-06 1.3065292e-06)
(0.0024604377 4.6052715e-06 1.2752599e-06)
(0.0024504197 4.5759121e-06 1.2449534e-06)
(0.0024406247 4.5463489e-06 1.2155768e-06)
(0.0024310448 4.5166033e-06 1.1870937e-06)
(0.0024216723 4.486699e-06 1.1594733e-06)
(0.0024125001 4.4566532e-06 1.132686e-06)
(0.0024035213 4.4264919e-06 1.1066987e-06)
(0.0023947295 4.3962303e-06 1.0814844e-06)
(0.0023861184 4.3658908e-06 1.0570149e-06)
(0.0023776821 4.3354868e-06 1.0332622e-06)
(0.0023694149 4.3050321e-06 1.0101987e-06)
(0.0023613115 4.2745332e-06 9.8779764e-07)
(0.0023533667 4.2439899e-06 9.6603232e-07)
(0.0023455757 4.2133922e-06 9.448768e-07)
(0.0023379337 4.1827154e-06 9.2430205e-07)
(0.0023304365 4.1519199e-06 9.0427801e-07)
(0.0023230798 4.1209457e-06 8.8477415e-07)
(0.0023158597 4.0897155e-06 8.6575416e-07)
(0.0023087726 4.0581465e-06 8.4717452e-07)
(0.002301815 4.0261806e-06 8.2898153e-07)
(0.0022949838 3.9938636e-06 8.1110779e-07)
(0.0022882766 3.961517e-06 7.9346316e-07)
(0.0022816911 3.930063e-06 7.7594368e-07)
(0.0022752261 3.9016755e-06 7.584778e-07)
(0.002268882 3.8809233e-06 7.4124662e-07)
(0.0022626609 3.8766279e-06 7.2572682e-07)
(0.0022565686 3.9042852e-06 7.1957907e-07)
(0.002250619 3.9866357e-06 7.5579948e-07)
(0.0022447716 4.1390804e-06 8.4931752e-07)
(0.0022335641 4.2832082e-06 2.4122085e-06)
(0.0094843561 6.6886586e-05 0.00022303624)
(0.0091549219 0.00011904886 0.00026838771)
(0.0087072816 0.00014772497 0.00025588053)
(0.0082191888 0.00015892952 0.00023765677)
(0.0077602858 0.00016026049 0.00021787143)
(0.0073412804 0.00015505102 0.00019586613)
(0.0069552494 0.00014481701 0.00017327438)
(0.0065978366 0.00013121474 0.00015165024)
(0.0062677954 0.00011592881 0.0001316921)
(0.0059642872 0.00010028521 0.0001136244)
(0.0056860598 8.5214432e-05 9.7497522e-05)
(0.0054316726 7.1330407e-05 8.3272195e-05)
(0.0051997008 5.8984298e-05 7.0844884e-05)
(0.0049887459 4.8311754e-05 6.0073373e-05)
(0.0047973943 3.9291582e-05 5.079889e-05)
(0.0046242055 3.1804354e-05 4.2859902e-05)
(0.0044677269 2.5679086e-05 3.6099807e-05)
(0.0043265179 2.0725785e-05 3.037129e-05)
(0.0041991724 1.6756344e-05 2.5538701e-05)
(0.004084339 1.3596839e-05 2.1479082e-05)
(0.0039807371 1.1093754e-05 1.8082324e-05)
(0.0038871692 9.1161642e-06 1.525079e-05)
(0.0038025288 7.5553812e-06 1.2898647e-05)
(0.003725804 6.3231345e-06 1.0950987e-05)
(0.0036560786 5.3488199e-06 9.3426787e-06)
(0.0035925304 4.5751816e-06 8.0166134e-06)
(0.0035344253 3.9620999e-06 6.9239486e-06)
(0.0034811131 3.4726267e-06 6.0250731e-06)
(0.0034320221 3.0815196e-06 5.2862636e-06)
(0.0033866501 2.7702773e-06 4.6792108e-06)
(0.0033445586 2.5236735e-06 4.1805208e-06)
(0.0033053662 2.3295857e-06 3.7707522e-06)
(0.0032687419 2.1784962e-06 3.4337454e-06)
(0.0032343982 2.0629041e-06 3.1561103e-06)
(0.0032020863 1.9768081e-06 2.9267973e-06)
(0.0031715907 1.9153167e-06 2.7367036e-06)
(0.0031427248 1.8743799e-06 2.5783559e-06)
(0.0031153267 1.8506053e-06 2.4456292e-06)
(0.0030892563 1.8411254e-06 2.3335222e-06)
(0.0030643915 1.8434996e-06 2.237967e-06)
(0.003040626 1.8556458e-06 2.1556632e-06)
(0.0030178671 1.8757804e-06 2.0839523e-06)
(0.0029960335 1.9023813e-06 2.0206939e-06)
(0.0029750538 1.9341337e-06 1.9641818e-06)
(0.0029548649 1.9699145e-06 1.9130533e-06)
(0.0029354109 2.0087615e-06 1.8662271e-06)
(0.0029166424 2.0498584e-06 1.8228524e-06)
(0.0028985148 2.0925091e-06 1.7822565e-06)
(0.0028809886 2.1361374e-06 1.7439147e-06)
(0.0028640277 2.1802702e-06 1.707411e-06)
(0.0028476 2.2245509e-06 1.6724139e-06)
(0.0028316758 2.26876e-06 1.6386553e-06)
(0.0028162284 2.312893e-06 1.6058718e-06)
(0.0028012324 2.3570797e-06 1.5738223e-06)
(0.0027866658 2.3978722e-06 1.5431885e-06)
(0.0027725089 2.4362372e-06 1.5136864e-06)
(0.0027587418 2.4734407e-06 1.4848877e-06)
(0.002745346 2.5095337e-06 1.4567019e-06)
(0.002732305 2.5443512e-06 1.4291156e-06)
(0.0027196032 2.5777748e-06 1.4021116e-06)
(0.0027072261 2.6097278e-06 1.3756642e-06)
(0.0026951602 2.6401698e-06 1.3497554e-06)
(0.0026833928 2.6690908e-06 1.3243751e-06)
(0.0026719116 2.6965062e-06 1.2995087e-06)
(0.0026607054 2.7223749e-06 1.2751523e-06)
(0.0026497635 2.7463591e-06 1.251313e-06)
(0.002639076 2.7689119e-06 1.2279778e-06)
(0.0026286333 2.7901496e-06 1.2051281e-06)
(0.0026184262 2.8099963e-06 1.1827617e-06)
(0.0026084461 2.8284354e-06 1.16087e-06)
(0.0025986849 2.8454972e-06 1.139449e-06)
(0.0025891348 2.8612192e-06 1.1184901e-06)
(0.0025797885 2.875651e-06 1.0979867e-06)
(0.002570639 2.8888322e-06 1.0779297e-06)
(0.0025616795 2.9008073e-06 1.0583104e-06)
(0.0025529038 2.9116217e-06 1.0391199e-06)
(0.0025443058 2.9213155e-06 1.0203497e-06)
(0.0025358796 2.9299304e-06 1.0019905e-06)
(0.0025276197 2.9375053e-06 9.8403352e-07)
(0.002519521 2.9440781e-06 9.6646698e-07)
(0.0025115783 2.9496782e-06 9.4928166e-07)
(0.0025037869 2.9543336e-06 9.3246272e-07)
(0.0024961421 2.9580623e-06 9.1600165e-07)
(0.0024886396 2.9608742e-06 8.998819e-07)
(0.0024812752 2.9627656e-06 8.8408612e-07)
(0.002474045 2.9637135e-06 8.6859556e-07)
(0.0024669452 2.9636773e-06 8.5338275e-07)
(0.0024599723 2.9626019e-06 8.3841434e-07)
(0.0024531231 2.9604193e-06 8.2364362e-07)
(0.0024463944 2.9570852e-06 8.0900484e-07)
(0.0024397839 2.952637e-06 7.9439869e-07)
(0.0024332894 2.9473381e-06 7.7969417e-07)
(0.0024269099 2.9419e-06 7.6470834e-07)
(0.0024206457 2.9379067e-06 7.4925895e-07)
(0.0024144993 2.9384038e-06 7.3336379e-07)
(0.0024084767 2.9484794e-06 7.1826294e-07)
(0.0024025877 2.9751071e-06 7.1113176e-07)
(0.0023968461 3.023443e-06 7.433118e-07)
(0.0023911946 3.0808138e-06 8.3046516e-07)
(0.0023803644 3.0574091e-06 2.2999417e-06)
(0.0094810492 4.4090136e-05 0.00022308885)
(0.0091422796 7.9975483e-05 0.00026874495)
(0.0086839084 0.00010160921 0.00025628771)
(0.0081880903 0.00011101591 0.00023793456)
(0.0077246858 0.00011275118 0.00021798622)
(0.0073029895 0.00010953687 0.00019578738)
(0.0069155191 0.00010266029 0.00017296032)
(0.0065579578 9.3267235e-05 0.0001510852)
(0.006229001 8.2539592e-05 0.00013089045)
(0.005927585 7.1446831e-05 0.00011261412)
(0.0056522063 6.0673359e-05 9.6309238e-05)
(0.0054012005 5.0670808e-05 8.1936267e-05)
(0.0051729477 4.1706608e-05 6.9390832e-05)
(0.004965887 3.3898115e-05 5.8529096e-05)
(0.0047784814 2.7249954e-05 4.9189878e-05)
(0.0046092054 2.1693073e-05 4.1208773e-05)
(0.0044565535 1.7117437e-05 3.4426144e-05)
(0.0043190553 1.3395518e-05 2.8691658e-05)
(0.0041952917 1.0397813e-05 2.3866804e-05)
(0.0040839086 8.0023313e-06 1.9826011e-05)
(0.0039836292 6.0997698e-06 1.645686e-05)
(0.0038932634 4.5956628e-06 1.3659715e-05)
(0.0038117126 3.410674e-06 1.1347012e-05)
(0.0037379734 2.479928e-06 9.4422908e-06)
(0.0036711359 1.7515121e-06 7.8790886e-06)
(0.0036103859 1.174905e-06 6.6010327e-06)
(0.0035549935 7.2234085e-07 5.5561203e-06)
(0.0035043108 3.7342542e-07 4.7060694e-06)
(0.0034577717 1.0569595e-07 4.0163442e-06)
(0.0034148763 -9.9089583e-08 3.4574131e-06)
(0.0033751872 -2.5333707e-07 3.0054948e-06)
(0.0033383243 -3.6640052e-07 2.6409741e-06)
(0.0033039576 -4.4578104e-07 2.3475725e-06)
(0.0032718009 -4.9748496e-07 2.1118259e-06)
(0.0032416065 -5.2634627e-07 1.9226414e-06)
(0.0032131599 -5.3631049e-07 1.7709154e-06)
(0.0031862758 -5.3063967e-07 1.649203e-06)
(0.0031607936 -5.1206213e-07 1.5514411e-06)
(0.0031365743 -4.8287303e-07 1.4727103e-06)
(0.0031134976 -4.4500706e-07 1.4090325e-06)
(0.0030914586 -4.0011034e-07 1.3572048e-06)
(0.0030703663 -3.4957828e-07 1.3146564e-06)
(0.0030501409 -2.9459463e-07 1.2793302e-06)
(0.0030307129 -2.3616833e-07 1.2495907e-06)
(0.0030120207 -1.7516504e-07 1.2241397e-06)
(0.0029940105 -1.1232085e-07 1.2019527e-06)
(0.0029766343 -4.8266807e-08 1.1822239e-06)
(0.0029598495 1.6448285e-08 1.1643217e-06)
(0.0029436181 8.1354154e-08 1.1477517e-06)
(0.002927906 1.4602407e-07 1.1321237e-06)
(0.0029126825 2.1005763e-07 1.1171187e-06)
(0.0028979201 2.7304814e-07 1.1024393e-06)
(0.0028835935 3.3454122e-07 1.0876607e-06)
(0.0028696773 3.943242e-07 1.0722023e-06)
(0.0028561514 4.5705018e-07 1.0590089e-06)
(0.0028429997 5.2060208e-07 1.047257e-06)
(0.0028302035 5.8225471e-07 1.0356071e-06)
(0.0028177449 6.4163873e-07 1.0238017e-06)
(0.0028056084 6.9902065e-07 1.0118749e-06)
(0.0027937799 7.5456285e-07 9.9986927e-07)
(0.0027822461 8.0835232e-07 9.8780989e-07)
(0.0027709946 8.6047094e-07 9.7571914e-07)
(0.0027600137 9.1102863e-07 9.6360371e-07)
(0.0027492926 9.601971e-07 9.5144651e-07)
(0.0027388208 1.008009e-06 9.3926742e-07)
(0.0027285887 1.0528539e-06 9.274652e-07)
(0.0027185878 1.0958707e-06 9.1582865e-07)
(0.0027088089 1.1375025e-06 9.0425316e-07)
(0.0026992438 1.1777693e-06 8.927591e-07)
(0.0026898847 1.2166589e-06 8.8136621e-07)
(0.0026807244 1.2541724e-06 8.7007928e-07)
(0.0026717559 1.2903144e-06 8.5890645e-07)
(0.0026629726 1.3251081e-06 8.478523e-07)
(0.0026543682 1.3585739e-06 8.369234e-07)
(0.0026459367 1.3907409e-06 8.2612244e-07)
(0.0026376723 1.4216362e-06 8.1545406e-07)
(0.0026295698 1.4512903e-06 8.049204e-07)
(0.0026216238 1.4797313e-06 7.9452391e-07)
(0.0026138294 1.506988e-06 7.8426365e-07)
(0.0026061819 1.5330905e-06 7.7414198e-07)
(0.0025986769 1.5580595e-06 7.6415395e-07)
(0.0025913099 1.5819158e-06 7.5429609e-07)
(0.0025840768 1.6046753e-06 7.4456553e-07)
(0.0025769739 1.6263419e-06 7.3495324e-07)