/*--------------------------------*- C++ -*----------------------------------*\
  =========                 |
  \\      /  F ield         | OpenFOAM: The Open Source CFD Toolbox
   \\    /   O peration     | Website:  https://openfoam.org
    \\  /    A nd           | Version:  7
     \\/     M anipulation  |
\*---------------------------------------------------------------------------*/
FoamFile
{
    version     2.0;
    format      ascii;
    class       surfaceScalarField;
    location    "950/water";
    object      phi;
}
// * * * * * * * * * * * * * * * * * * * * * * * * * * * * * * * * * * * * * //

dimensions      [1 0 -1 0 0 0 0];

internalField   nonuniform List<scalar> 
156660
(
9.905724e-05
6.0010402e-06
6.0528092e-06
8.6847497e-05
6.0555113e-06
6.1542307e-06
7.5687891e-05
5.5111363e-06
5.6484701e-06
6.5441704e-05
5.0404181e-06
5.2057689e-06
5.6267661e-05
4.4956436e-06
4.6783991e-06
4.8318019e-05
3.8797648e-06
4.0698777e-06
4.1624776e-05
3.2524448e-06
3.4407981e-06
3.6124897e-05
2.660462e-06
2.839417e-06
3.1692235e-05
2.1345126e-06
2.2981489e-06
2.8162841e-05
1.6926975e-06
1.8366964e-06
2.5361437e-05
1.3399933e-06
1.4614113e-06
2.3124664e-05
1.0698477e-06
1.1669256e-06
2.1315127e-05
8.6875418e-07
9.4078225e-07
1.9825714e-05
7.2110063e-07
7.6831274e-07
1.8577278e-05
6.1248245e-07
6.3595308e-07
1.7513255e-05
5.3125219e-07
5.3277148e-07
1.6593744e-05
4.6879727e-07
4.5071349e-07
1.5790433e-05
4.1913719e-07
3.8417386e-07
1.5082784e-05
3.782907e-07
3.293585e-07
1.4455417e-05
3.4367128e-07
2.8369564e-07
1.3896409e-05
3.1361409e-07
2.4539332e-07
1.339622e-05
2.8704454e-07
2.1314455e-07
1.2947015e-05
2.6326031e-07
1.8594508e-07
1.2542237e-05
2.4179365e-07
1.6298463e-07
1.2176318e-05
2.2232207e-07
1.4359691e-07
1.1844484e-05
2.046148e-07
1.272188e-07
1.1542609e-05
1.8849496e-07
1.1337974e-07
1.1267116e-05
1.7381576e-07
1.0167794e-07
1.1014892e-05
1.6046273e-07
9.1760829e-08
1.0783252e-05
1.4833967e-07
8.3300593e-08
1.0569851e-05
1.3734904e-07
7.6052138e-08
1.0372614e-05
1.2738863e-07
6.984833e-08
1.0189731e-05
1.1836807e-07
6.4514824e-08
1.001963e-05
1.1020447e-07
5.9896625e-08
9.8609388e-06
1.0281922e-07
5.5871662e-08
9.7124594e-06
9.6137948e-08
5.234138e-08
9.5731439e-06
9.0091174e-08
4.9224345e-08
9.4420759e-06
8.4614474e-08
4.6453577e-08
9.3184531e-06
7.9648656e-08
4.3974118e-08
9.2015723e-06
7.5139742e-08
4.1741085e-08
9.0908166e-06
7.1038175e-08
3.9717557e-08
8.9856432e-06
6.7301177e-08
3.7872298e-08
8.8855707e-06
6.389428e-08
3.6178146e-08
8.7901757e-06
6.0780121e-08
3.4614957e-08
8.6990829e-06
5.7926167e-08
3.3166671e-08
8.611959e-06
5.53037e-08
3.182013e-08
8.5285072e-06
5.2887445e-08
3.0564403e-08
8.4484618e-06
5.0655069e-08
2.9390297e-08
8.3715848e-06
4.8587077e-08
2.829004e-08
8.2976614e-06
4.6666183e-08
2.7257189e-08
8.2264975e-06
4.4877484e-08
2.6286421e-08
8.1579202e-06
4.3208794e-08
2.5368506e-08
8.0917731e-06
4.1649028e-08
2.4498048e-08
8.0279108e-06
4.0186949e-08
2.3675358e-08
7.9662005e-06
3.8812651e-08
2.2897537e-08
7.9065219e-06
3.7518382e-08
2.2160212e-08
7.8487639e-06
3.6297836e-08
2.1460157e-08
7.7928241e-06
3.5145156e-08
2.0794585e-08
7.7386083e-06
3.4054667e-08
2.0161144e-08
7.6860293e-06
3.3021386e-08
1.9557697e-08
7.6350062e-06
3.2040799e-08
1.8982259e-08
7.5854641e-06
3.1109045e-08
1.8433042e-08
7.537333e-06
3.0222622e-08
1.7908497e-08
7.4905478e-06
2.9378231e-08
1.7407001e-08
7.4450476e-06
2.8572994e-08
1.6927195e-08
7.4007755e-06
2.7804234e-08
1.6467803e-08
7.3576783e-06
2.7069602e-08
1.6027642e-08
7.3157057e-06
2.6367058e-08
1.5605623e-08
7.2748103e-06
2.5694653e-08
1.5200664e-08
7.2349479e-06
2.5050567e-08
1.4811824e-08
7.1960766e-06
2.4433092e-08
1.4438193e-08
7.158157e-06
2.3840701e-08
1.4078927e-08
7.1211518e-06
2.3271907e-08
1.3733274e-08
7.0850258e-06
2.2725484e-08
1.3400511e-08
7.0497456e-06
2.2200206e-08
1.3079938e-08
7.0152798e-06
2.1694928e-08
1.2770876e-08
6.9815985e-06
2.120857e-08
1.2472722e-08
6.9486733e-06
2.074024e-08
1.2184919e-08
6.9164775e-06
2.0288966e-08
1.1906822e-08
6.8849857e-06
1.9853941e-08
1.1637828e-08
6.8541739e-06
1.9434335e-08
1.1377441e-08
6.8240193e-06
1.9029442e-08
1.1125083e-08
6.7945006e-06
1.8638508e-08
1.0880248e-08
6.7655975e-06
1.8260781e-08
1.0642301e-08
6.7372912e-06
1.789557e-08
1.0410744e-08
6.709564e-06
1.7542113e-08
1.0185089e-08
6.6823995e-06
1.7199623e-08
9.9648613e-09
6.6557824e-06
1.6867269e-08
9.749815e-09
6.6296983e-06
1.6544147e-08
9.5399549e-09
6.6041331e-06
1.6229267e-08
9.3360132e-09
6.5790714e-06
1.5921952e-08
9.1396878e-09
6.554494e-06
1.562232e-08
8.9550985e-09
6.5303708e-06
1.5332547e-08
8.7906598e-09
6.5066467e-06
1.506047e-08
8.6636168e-09
6.4832094e-06
1.4827819e-08
8.6095169e-09
6.4598103e-06
1.4693095e-08
8.7060238e-09
6.4358388e-06
1.4826408e-08
9.1451434e-09
6.4096303e-06
1.5741744e-08
1.0466718e-08
6.3782855e-06
1.8026582e-08
1.3318238e-08
3.2300191e-08
2.7923555e-08
0.00010646494
4.1872385e-06
6.4599816e-06
0.0001002019
5.695418e-06
6.6231353e-06
9.3659588e-05
5.7790389e-06
6.2744098e-06
8.7011589e-05
5.6514782e-06
6.0369387e-06
8.0422927e-05
5.3669119e-06
5.7173941e-06
7.4094022e-05
4.9022832e-06
5.3063862e-06
6.8167026e-05
4.3278136e-06
4.8516273e-06
6.2722565e-05
3.717891e-06
4.387032e-06
5.7799049e-05
3.1243144e-06
3.9337145e-06
5.3403345e-05
2.5820689e-06
3.5063329e-06
4.9517402e-05
2.1121062e-06
3.1138299e-06
4.6105482e-05
1.7220197e-06
2.7597474e-06
4.3121558e-05
1.4089355e-06
2.4437429e-06
4.0515558e-05
1.1637552e-06
2.163346e-06
3.8237948e-05
9.7485851e-07
1.9152336e-06
3.6242683e-05
8.3055977e-07
1.6959573e-06
3.4488759e-05
7.2043696e-07
1.5022849e-06
3.2940716e-05
6.3586294e-07
1.3313172e-06
3.1568463e-05
5.7005003e-07
1.180493e-06
3.0346733e-05
5.1784897e-07
1.0475522e-06
2.9254398e-05
4.7545955e-07
9.3049033e-07
2.8273782e-05
4.4013961e-07
8.2752027e-07
2.7390054e-05
4.0994891e-07
7.3704009e-07
2.6590699e-05
3.8353955e-07
6.576086e-07
2.5865102e-05
3.5998889e-07
5.8793072e-07
2.5204198e-05
3.3867633e-07
5.2684262e-07
2.4600205e-05
3.1918361e-07
4.7330347e-07
2.4046429e-05
3.0120194e-07
4.2639017e-07
2.3537073e-05
2.8455207e-07
3.8526716e-07
2.3067119e-05
2.6911097e-07
3.4918239e-07
2.2632208e-05
2.5478166e-07
3.1747787e-07
2.2228528e-05
2.4147382e-07
2.895953e-07
2.1852744e-05
2.2911073e-07
2.6504124e-07
2.1501947e-05
2.1762893e-07
2.4337253e-07
2.1173591e-05
2.0696953e-07
2.2420573e-07
2.0865444e-05
1.970757e-07
2.0720868e-07
2.0575549e-05
1.8789252e-07
1.9209396e-07
2.0302183e-05
1.7936725e-07
1.7861345e-07
2.0043829e-05
1.714491e-07
1.6655323e-07
1.979915e-05
1.6408981e-07
1.5572944e-07
1.956696e-05
1.5724384e-07
1.4598402e-07
1.934621e-05
1.5086896e-07
1.3718218e-07
1.9135969e-05
1.4492652e-07
1.2920882e-07
1.8935407e-05
1.3937907e-07
1.2196309e-07
1.8743783e-05
1.3419228e-07
1.1535765e-07
1.8560435e-05
1.2933511e-07
1.0931729e-07
1.8384766e-05
1.2477911e-07
1.0377717e-07
1.8216241e-05
1.2049854e-07
9.8681296e-08
1.8054377e-05
1.1647013e-07
9.398131e-08
1.7898734e-05
1.1267291e-07
8.9635436e-08
1.7748917e-05
1.0908821e-07
8.5607e-08
1.7604563e-05
1.0570004e-07
8.1862385e-08
1.7465345e-05
1.0249339e-07
7.8373269e-08
1.7330962e-05
9.9452985e-08
7.5116993e-08
1.7201138e-05
9.6564374e-08
7.2072729e-08
1.7075619e-05
9.3816629e-08
6.9221141e-08
1.695417e-05
9.1201076e-08
6.6545103e-08
1.6836577e-05
8.8709108e-08
6.4029544e-08
1.6722638e-05
8.6331969e-08
6.1661027e-08
1.661217e-05
8.4061779e-08
5.9427678e-08
1.6505001e-05
8.1891544e-08
5.7318775e-08
1.640097e-05
7.9814908e-08
5.5324831e-08
1.6299929e-05
7.7826145e-08
5.3437142e-08
1.620174e-05
7.5919846e-08
5.1647893e-08
1.6106272e-05
7.4091032e-08
4.9950123e-08
1.6013404e-05
7.2334981e-08
4.8337377e-08
1.5923022e-05
7.064771e-08
4.6803828e-08
1.5835019e-05
6.9025731e-08
4.5344258e-08
1.5749294e-05
6.7465552e-08
4.3953707e-08
1.5665753e-05
6.5963791e-08
4.2627689e-08
1.5584307e-05
6.4517323e-08
4.1362142e-08
1.5504871e-05
6.3123408e-08
4.0153349e-08
1.5427365e-05
6.177927e-08
3.8997783e-08
1.5351716e-05
6.0482518e-08
3.7892251e-08
1.5277852e-05
5.9230841e-08
3.6833828e-08
1.5205705e-05
5.8021983e-08
3.581975e-08
1.5135212e-05
5.6854007e-08
3.4847377e-08
1.5066313e-05
5.5724951e-08
3.3914323e-08
1.499895e-05
5.4633125e-08
3.3018384e-08
1.493307e-05
5.3576742e-08
3.2157435e-08
1.4868621e-05
5.2554182e-08
3.1329423e-08
1.4805554e-05
5.1563945e-08
3.0532436e-08
1.4743823e-05
5.060448e-08
2.9764653e-08
1.4683386e-05
4.967426e-08
2.9024349e-08
1.4624199e-05
4.8771815e-08
2.8309863e-08
1.4566226e-05
4.7895488e-08
2.7619574e-08
1.4509431e-05
4.7043535e-08
2.6951984e-08
1.4453778e-05
4.6214125e-08
2.6305772e-08
1.4399237e-05
4.5405392e-08
2.5679857e-08
1.4345777e-05
4.4615702e-08
2.5073763e-08
1.4293367e-05
4.3844234e-08
2.4487678e-08
1.4241972e-05
4.3092844e-08
2.3923745e-08
1.4191548e-05
4.2369898e-08
2.3387156e-08
1.4142019e-05
4.1699317e-08
2.2889662e-08
1.4093249e-05
4.1141635e-08
2.245664e-08
1.4044951e-05
4.0844655e-08
2.214655e-08
1.3996485e-05
4.1169183e-08
2.2123039e-08
1.3946229e-05
4.3012328e-08
2.2985398e-08
1.389015e-05
4.8540263e-08
2.5565803e-08
6.3281575e-08
5.0000849e-08
0.00010603565
2.7876425e-06
6.4750379e-06
0.00010074799
4.4145413e-06
6.5685292e-06
9.5493515e-05
4.8594027e-06
6.1741158e-06
9.0256432e-05
4.930369e-06
5.9581921e-06
8.5101366e-05
4.8311767e-06
5.6908011e-06
8.0102875e-05
4.5561761e-06
5.3445981e-06
7.5322251e-05
4.1469521e-06
4.9614853e-06
7.0803266e-05
3.6678925e-06
4.5689837e-06
6.6576264e-05
3.1701903e-06
4.1811255e-06
6.2660725e-05
2.6900109e-06
3.8075976e-06
5.9065443e-05
2.2519319e-06
3.4554566e-06
5.5788936e-05
1.8697304e-06
3.1287957e-06
5.2820978e-05
1.5477473e-06
2.8291458e-06
5.014479e-05
1.2836302e-06
2.556314e-06
4.7739304e-05
1.07123e-06
2.3091141e-06
4.5581183e-05
9.0281504e-07
2.0858661e-06
4.3646423e-05
7.704878e-07
1.884709e-06
4.1911533e-05
6.6697373e-07
1.7037793e-06
4.0354306e-05
5.8598197e-07
1.541295e-06
3.8954268e-05
5.2230223e-07
1.3955849e-06
3.769288e-05
4.7175604e-07
1.265091e-06
3.6553576e-05
4.3107983e-07
1.1483634e-06
3.552169e-05
3.9778205e-07
1.0440533e-06
3.4584322e-05
3.6999883e-07
9.509083e-07
3.3730181e-05
3.4635984e-07
8.677702e-07
3.2949411e-05
3.258776e-07
7.9356872e-07
3.223342e-05
3.0784048e-07
7.2733485e-07
3.1574711e-05
2.9172983e-07
6.6818105e-07
3.0966769e-05
2.7719264e-07
6.1530128e-07
3.0403928e-05
2.6398101e-07
5.679702e-07
2.9881258e-05
2.5190848e-07
5.2554317e-07
2.9394455e-05
2.4082714e-07
4.8745004e-07
2.8939761e-05
2.306216e-07
4.531833e-07
2.8513895e-05
2.2120153e-07
4.2229385e-07
2.8113985e-05
2.1249195e-07
3.943867e-07
2.7737518e-05
2.04428e-07
3.691149e-07
2.7382285e-05
1.9695193e-07
3.4617383e-07
2.7046344e-05
1.9001179e-07
3.2529677e-07
2.6727982e-05
1.8355996e-07
3.0625041e-07
2.6425689e-05
1.7755278e-07
2.8883085e-07
2.6138123e-05
1.7195003e-07
2.7285985e-07
2.5864094e-05
1.6671517e-07
2.5818186e-07
2.5602546e-05
1.6181455e-07
2.4466091e-07
2.535253e-05
1.572171e-07
2.3217764e-07
2.5113201e-05
1.5289443e-07
2.2062727e-07
2.4883797e-05
1.4882095e-07
2.0991773e-07
2.4663634e-05
1.4497367e-07
1.9996813e-07
2.4452094e-05
1.4133184e-07
1.9070706e-07
2.4248615e-05
1.3787698e-07
1.8207151e-07
2.405269e-05
1.3459265e-07
1.7400572e-07
2.3863854e-05
1.3146457e-07
1.6645989e-07
2.3681684e-05
1.2848057e-07
1.5938925e-07
2.3505794e-05
1.256292e-07
1.5275412e-07
2.3335829e-05
1.2289869e-07
1.4651968e-07
2.3171462e-05
1.2027634e-07
1.406546e-07
2.3012394e-05
1.1775474e-07
1.3513019e-07
2.2858345e-05
1.1532968e-07
1.2992044e-07
2.2709057e-05
1.1299537e-07
1.2500171e-07
2.2564291e-05
1.1074521e-07
1.2035288e-07
2.2423824e-05
1.0857349e-07
1.1595457e-07
2.2287451e-05
1.0647551e-07
1.1178922e-07
2.2154978e-05
1.0444701e-07
1.0784082e-07
2.2026226e-05
1.0248419e-07
1.0409459e-07
2.1901025e-05
1.0058351e-07
1.0053716e-07
2.1779218e-05
9.874155e-08
9.715614e-08
2.1660658e-05
9.6954881e-08
9.3940261e-08
2.1545205e-05
9.5221261e-08
9.0879026e-08
2.1432729e-05
9.3538824e-08
8.7962791e-08
2.1323107e-05
9.1905305e-08
8.5182586e-08
2.1216222e-05
9.0318518e-08
8.2530174e-08
2.1111965e-05
8.8776426e-08
7.9997887e-08
2.1010233e-05
8.7277107e-08
7.7578631e-08
2.0910927e-05
8.5818962e-08
7.5265872e-08
2.0813956e-05
8.440033e-08
7.3053455e-08
2.0719232e-05
8.3019688e-08
7.0935661e-08
2.0626671e-05
8.167564e-08
6.8907217e-08
2.0536195e-05
8.0366846e-08
6.696314e-08
2.0447729e-05
7.9091951e-08
6.5098746e-08
2.0361203e-05
7.784981e-08
6.3309733e-08
2.0276548e-05
7.6639237e-08
6.1592015e-08
2.0193702e-05
7.5459004e-08
5.9941755e-08
2.0112602e-05
7.4307966e-08
5.835523e-08
2.0033193e-05
7.3184929e-08
5.6829031e-08
1.9955419e-05
7.2088616e-08
5.5359934e-08
1.9879228e-05
7.1017614e-08
5.3944824e-08
1.9804572e-05
6.9970445e-08
5.2580713e-08
1.9731406e-05
6.8945261e-08
5.1264772e-08
1.9659685e-05
6.7940134e-08
4.9994393e-08
1.9589371e-05
6.6953029e-08
4.8767047e-08
1.9520423e-05
6.5982341e-08
4.7580551e-08
1.9452807e-05
6.5028024e-08
4.6433087e-08
1.9386482e-05
6.4094128e-08
4.5323767e-08
1.9321404e-05
6.3194698e-08
4.425309e-08
1.9257511e-05
6.2366331e-08
4.322524e-08
1.9194705e-05
6.169512e-08
4.2253148e-08
1.9132798e-05
6.1374061e-08
4.137739e-08
1.9071394e-05
6.1822437e-08
4.0750671e-08
1.9009424e-05
6.3924759e-08
4.1057608e-08
1.8944661e-05
6.9304712e-08
4.399884e-08
7.9170951e-08
7.4661548e-08
0.0001054937
1.9169871e-06
6.4880406e-06
0.00010005365
3.2729596e-06
6.5816334e-06
9.4926077e-05
3.8288995e-06
6.1580776e-06
8.9946373e-05
3.9838109e-06
5.9262629e-06
8.5163276e-05
3.9595077e-06
5.6547657e-06
8.0619137e-05
3.7899369e-06
5.3103784e-06
7.6329462e-05
3.5015547e-06
4.9350725e-06
7.230016e-05
3.1412013e-06
4.5559928e-06
6.8534206e-05
2.7514802e-06
4.1846641e-06
6.5032983e-05
2.3633493e-06
3.8278852e-06
6.1795789e-05
1.9984143e-06
3.490711e-06
5.8818843e-05
1.6703759e-06
3.176301e-06
5.6094717e-05
1.3858295e-06
2.886043e-06
5.3612488e-05
1.1457945e-06
2.6200649e-06
5.1358373e-05
9.4764117e-07
2.3777043e-06
4.9316593e-05
7.8676785e-07
2.1578272e-06
4.7470246e-05
6.5779545e-07
1.9590391e-06
4.5802069e-05
5.5532541e-07
1.7798252e-06
4.4295042e-05
4.7437115e-07
1.6186378e-06
4.293283e-05
4.1056667e-07
1.473948e-06
4.1700078e-05
3.6023232e-07
1.3442759e-06
4.0582591e-05
3.2035743e-07
1.2282094e-06
3.956742e-05
2.8853735e-07
1.1244154e-06
3.8642881e-05
2.6289064e-07
1.0316467e-06
3.7798527e-05
2.4196986e-07
9.4874402e-07
3.7025076e-05
2.2467706e-07
8.7465172e-07
3.6314324e-05
2.1018897e-07
8.0840408e-07
3.5659057e-05
1.9788606e-07
7.4911042e-07
3.5052961e-05
1.8731586e-07
6.9597282e-07
3.4490519e-05
1.7814871e-07
6.4827378e-07
3.3966922e-05
1.701317e-07
6.053744e-07
3.3477973e-05
1.630673e-07
5.6670867e-07
3.3020016e-05
1.5680298e-07
5.3177541e-07
3.2589865e-05
1.5122055e-07
5.0013242e-07
3.218474e-05
1.4622564e-07
4.7139135e-07
3.1802215e-05
1.4174072e-07
4.4521233e-07
3.1440168e-05
1.3770093e-07
4.2129808e-07
3.1096739e-05
1.3405094e-07
3.9938924e-07
3.0770297e-05
1.3074296e-07
3.7925954e-07
3.0459402e-05
1.2773517e-07
3.6071195e-07
3.0162787e-05
1.2499092e-07
3.4357481e-07
2.9879325e-05
1.2247786e-07
3.276985e-07
2.960802e-05
1.2016731e-07
3.1295271e-07
2.934798e-05
1.1803379e-07
2.9922353e-07
2.9098408e-05
1.1605464e-07
2.8641138e-07
2.885859e-05
1.1420981e-07
2.7442904e-07
2.8627882e-05
1.1248191e-07
2.6319999e-07
2.8405701e-05
1.1085556e-07
2.5265685e-07
2.819152e-05
1.0931759e-07
2.4274023e-07
2.7984859e-05
1.0785651e-07
2.3339757e-07
2.7785279e-05
1.0646278e-07
2.2458211e-07
2.7592378e-05
1.0512872e-07
2.1625213e-07
2.740579e-05
1.0384736e-07
2.0837033e-07
2.7225174e-05
1.0261118e-07
2.009036e-07
2.705022e-05
1.0140747e-07
1.9382259e-07
2.6880641e-05
1.0023384e-07
1.8710041e-07
2.6716166e-05
9.909237e-08
1.8071226e-07
2.6556546e-05
9.7979989e-08
1.7463559e-07
2.6401548e-05
9.6892525e-08
1.6885015e-07
2.6250957e-05
9.5827107e-08
1.6333741e-07
2.610457e-05
9.478171e-08
1.5808042e-07
2.5962199e-05
9.3754761e-08
1.5306363e-07
2.5823666e-05
9.2744903e-08
1.4827262e-07
2.5688804e-05
9.1751009e-08
1.4369413e-07
2.5557458e-05
9.0771776e-08
1.3931598e-07
2.5429481e-05
8.9805197e-08
1.3512694e-07
2.5304734e-05
8.8851486e-08
1.3111647e-07
2.5183087e-05
8.7911194e-08
1.2727466e-07
2.5064416e-05
8.6983919e-08
1.2359242e-07
2.4948604e-05
8.6068862e-08
1.2006117e-07
2.4835542e-05
8.5165786e-08
1.1667299e-07
2.4725124e-05
8.4274344e-08
1.1342046e-07
2.4617252e-05
8.339428e-08
1.102966e-07
2.4511832e-05
8.2525477e-08
1.0729477e-07
2.4408775e-05
8.1667773e-08
1.0440898e-07
2.4307997e-05
8.0820952e-08
1.016334e-07
2.4209416e-05
7.9985034e-08
9.8962674e-08
2.4112956e-05
7.915974e-08
9.6391537e-08
2.4018546e-05
7.8345031e-08
9.3915253e-08
2.3926115e-05
7.7540701e-08
9.1529293e-08
2.3835598e-05
7.6746575e-08
8.9229248e-08
2.3746933e-05
7.5962331e-08
8.7011029e-08
2.366006e-05
7.5187628e-08
8.4870691e-08
2.3574922e-05
7.4421955e-08
8.2804514e-08
2.3491466e-05
7.3664627e-08
8.0808939e-08
2.3409641e-05
7.2914619e-08
7.8880359e-08
2.33294e-05
7.2170691e-08
7.7015479e-08
2.3250698e-05
7.143131e-08
7.5211015e-08
2.3173492e-05
7.069485e-08
7.3463618e-08
2.3097745e-05
6.9960205e-08
7.1770087e-08
2.3023418e-05
6.9227991e-08
7.0127021e-08
2.2950477e-05
6.8503486e-08
6.8531182e-08
2.2878889e-05
6.7802866e-08
6.6979708e-08
2.2808619e-05
6.716506e-08
6.5471573e-08
2.2739625e-05
6.6675252e-08
6.4013364e-08
2.267185e-05
6.6507062e-08
6.2642321e-08
2.2605149e-05
6.6990729e-08
6.1532403e-08
2.2538888e-05
6.8686035e-08
6.1499934e-08
2.2471121e-05
7.2226964e-08
6.4845118e-08
7.6722844e-08
9.8461307e-08
0.0001051979
1.3340884e-06
6.4961221e-06
9.9496561e-05
2.3731022e-06
6.6011947e-06
9.4262459e-05
2.9019224e-06
6.1610799e-06
8.9251186e-05
3.0856642e-06
5.9094196e-06
8.4493497e-05
3.0947347e-06
5.6224614e-06
8.0033635e-05
2.9846657e-06
5.2651341e-06
7.5876907e-05
2.7790155e-06
4.8792667e-06
7.2014635e-05
2.5106843e-06
4.4927894e-06
6.8436293e-05
2.2128728e-06
4.1169489e-06
6.5131387e-05
1.9107259e-06
3.7575291e-06
6.208941e-05
1.6217321e-06
3.4186596e-06
5.9299432e-05
1.3573878e-06
3.1029661e-06
5.6749589e-05
1.1240344e-06
2.8116386e-06
5.4426788e-05
9.2377947e-07
2.5448158e-06
5.2316754e-05
7.5572798e-07
2.3019466e-06
5.0404313e-05
6.1717852e-07
2.0820302e-06
4.8673788e-05
5.0454348e-07
1.8837772e-06
4.7109414e-05
4.1397179e-07
1.7057274e-06
4.5695713e-05
3.417365e-07
1.5463363e-06
4.4417792e-05
2.8445147e-07
1.4040359e-06
4.3261575e-05
2.3917112e-07
1.277278e-06
4.2213952e-05
2.0341501e-07
1.1645652e-06
4.1262871e-05
1.7514744e-07
1.0644719e-06
4.039737e-05
1.5273234e-07
9.7565899e-07
3.9607583e-05
1.3487529e-07
8.9688142e-07
3.8884688e-05
1.2055568e-07
8.2701639e-07
3.8220848e-05
1.0901094e-07
7.6501853e-07
3.7609155e-05
9.9633845e-08
7.0994487e-07
3.7043542e-05
9.1977471e-08
6.6095086e-07
3.6518702e-05
8.570587e-08
6.1728287e-07
3.6030009e-05
8.0552396e-08
5.7827309e-07
3.5573433e-05
7.630828e-08
5.4333414e-07
3.5145475e-05
7.2811296e-08
5.1195027e-07
3.4743091e-05
6.9934135e-08
4.8367023e-07
3.4363641e-05
6.757544e-08
4.5810065e-07
3.4004828e-05
6.5652862e-08
4.3489996e-07
3.3664659e-05
6.4098594e-08
4.1377208e-07
3.3341393e-05
6.2855906e-08
3.9446097e-07
3.3033513e-05
6.1877025e-08
3.7674529e-07
3.2739693e-05
6.11211e-08
3.6043427e-07
3.2458768e-05
6.0553072e-08
3.4536332e-07
3.2189712e-05
6.0142686e-08
3.3139057e-07
3.1931622e-05
5.9863685e-08
3.1839377e-07
3.1683696e-05
5.9693126e-08
3.0626736e-07
3.1445219e-05
5.9611213e-08
2.9492013e-07
3.1215555e-05
5.9600625e-08
2.8427318e-07
3.0994132e-05
5.9646508e-08
2.7425807e-07
3.0780436e-05
5.9736177e-08
2.6481541e-07
3.0574002e-05
5.9858673e-08
2.5589334e-07
3.0374407e-05
6.0004944e-08
2.4744659e-07
3.0181267e-05
6.0167644e-08
2.3943548e-07
2.9994229e-05
6.0341266e-08
2.3182487e-07
2.9812971e-05
6.0521826e-08
2.2458374e-07
2.9637193e-05
6.070449e-08
2.1768456e-07
2.9466629e-05
6.0867289e-08
2.1110455e-07
2.9301024e-05
6.1016996e-08
2.0482179e-07
2.914014e-05
6.116084e-08
1.9881569e-07
2.8983756e-05
6.1294944e-08
1.9306838e-07
2.8831669e-05
6.1415499e-08
1.8756388e-07
2.8683688e-05
6.152095e-08
1.8228762e-07
2.8539633e-05
6.1610561e-08
1.7722632e-07
2.8399336e-05
6.1683799e-08
1.7236782e-07
2.8262639e-05
6.1740491e-08
1.6770089e-07
2.8129394e-05
6.1780711e-08
1.632152e-07
2.7999461e-05
6.1803919e-08
1.5890121e-07
2.7872709e-05
6.1807372e-08
1.5475037e-07
2.7749012e-05
6.1793551e-08
1.5075443e-07
2.7628253e-05
6.1764788e-08
1.4690558e-07
2.7510319e-05
6.1720991e-08
1.4319661e-07
2.7395105e-05
6.1662116e-08
1.3962083e-07
2.728251e-05
6.1588632e-08
1.3617202e-07
2.7172439e-05
6.1501066e-08
1.3284421e-07
2.7064802e-05
6.1399983e-08
1.2963193e-07
2.6959511e-05
6.1285945e-08
1.2652993e-07
2.6856486e-05
6.1159518e-08
1.2353324e-07
2.6755649e-05
6.1021314e-08
1.2063732e-07
2.6656924e-05
6.0871863e-08
1.1783766e-07
2.6560242e-05
6.0711714e-08
1.1513014e-07
2.6465535e-05
6.0541403e-08
1.1251075e-07
2.6372738e-05
6.0361355e-08
1.0997579e-07
2.6281791e-05
6.0171968e-08
1.075216e-07
2.6192636e-05
5.997356e-08
1.051447e-07
2.6105215e-05
5.9766317e-08
1.0284181e-07
2.6019477e-05
5.9550239e-08
1.0060973e-07
2.5935371e-05
5.9325124e-08
9.8445303e-08
2.585285e-05
5.9090485e-08
9.6345399e-08
2.5771868e-05
5.8845488e-08
9.4306924e-08
2.5692384e-05
5.8589e-08
9.2326752e-08
2.5614357e-05
5.8319812e-08
9.0401428e-08
2.5537753e-05
5.8037079e-08
8.8527351e-08
2.5462539e-05
5.7741625e-08
8.6700187e-08
2.5388689e-05
5.7438384e-08
8.4915144e-08
2.5316184e-05
5.7141424e-08
8.3166616e-08
2.5245017e-05
5.6882581e-08
8.1449626e-08
2.51752e-05
5.672603e-08
7.9765848e-08
2.510677e-05
5.67879e-08
7.8149225e-08
2.5039729e-05
5.7251605e-08
7.6780967e-08
2.4973573e-05
5.8330918e-08
7.6510224e-08
2.4906079e-05
5.9989491e-08
7.9732171e-08
6.0715007e-08
1.1287823e-07
0.00010503672
9.0789369e-07
6.5005614e-06
9.9140653e-05
1.6524914e-06
6.6166802e-06
9.3788329e-05
2.0825242e-06
6.1717217e-06
8.8708526e-05
2.2549373e-06
5.91053e-06
8.3909682e-05
2.278404e-06
5.6151748e-06
7.9437109e-05
2.2074821e-06
5.2497564e-06
7.5296201e-05
2.0645348e-06
4.8553893e-06
7.1474034e-05
1.8722543e-06
4.4605969e-06
6.7955013e-05
1.6547667e-06
4.0771269e-06
6.4723621e-05
1.4313505e-06
3.7107669e-06
6.1764423e-05
1.2154298e-06
3.3655007e-06
5.9062056e-05
1.015864e-06
3.0438911e-06
5.6601108e-05
8.3782746e-07
2.7471548e-06
5.4365944e-05
6.8344647e-07
2.475497e-06
5.2340648e-05
5.525853e-07
2.2284384e-06
5.0509125e-05
4.4366547e-07
2.0050361e-06
4.8855299e-05
3.5433456e-07
1.8040352e-06
4.7363353e-05
2.8193591e-07
1.6239821e-06
4.6017963e-05
2.2381344e-07
1.4633127e-06
4.4804502e-05
1.7749383e-07
1.3204181e-06
4.3709199e-05
1.407809e-07
1.1936935e-06
4.2719248e-05
1.1179154e-07
1.081575e-06
4.1822875e-05
8.895454e-08
9.8256582e-07
4.1009364e-05
7.0988033e-08
8.9525473e-07
4.0269054e-05
5.6861857e-08
8.1832381e-07
3.9593306e-05
4.571915e-08
7.5058476e-07
3.8974405e-05
3.697786e-08
6.9093439e-07
3.8405585e-05
3.0067396e-08
6.3838632e-07
3.7880869e-05
2.4650868e-08
5.9204241e-07
3.7395029e-05
2.0439994e-08
5.5110603e-07
3.6943514e-05
1.71903e-08
5.1487715e-07
3.6522366e-05
1.4716759e-08
4.8273957e-07
3.6128148e-05
1.28748e-08
4.5415389e-07
3.5757883e-05
1.1549918e-08
4.286494e-07
3.5408991e-05
1.0650773e-08
4.0581704e-07
3.5079238e-05
1.0103614e-08
3.853023e-07
3.4766689e-05
9.848281e-09
3.6679879e-07
3.4469668e-05
9.8351055e-09
3.5004237e-07
3.4186716e-05
1.002293e-08
3.3480554e-07
3.3916567e-05
1.0377021e-08
3.2089287e-07
3.3658116e-05
1.0868111e-08
3.0813662e-07
3.3410395e-05
1.1470995e-08
2.9639281e-07
3.3172556e-05
1.2164235e-08
2.8553824e-07
3.2943852e-05
1.2929314e-08
2.7546717e-07
3.2723625e-05
1.375019e-08
2.6608894e-07
3.2511286e-05
1.4613098e-08
2.5732572e-07
3.2306316e-05
1.5506244e-08
2.4911067e-07
3.2108246e-05
1.6419597e-08
2.4138626e-07
3.1916658e-05
1.7344608e-08
2.341027e-07
3.1731171e-05
1.8274331e-08
2.2721711e-07
3.1551444e-05
1.9203185e-08
2.2069214e-07
3.1377162e-05
2.0127724e-08
2.1449509e-07
3.1208038e-05
2.1048689e-08
2.0859683e-07
3.10438e-05
2.1972785e-08
2.0297057e-07
3.0884232e-05
2.2827872e-08
1.9760739e-07
3.0729103e-05
2.3662977e-08
1.9248228e-07
3.05782e-05
2.4490003e-08
1.8757381e-07
3.0431331e-05
2.529629e-08
1.8286764e-07
3.0288318e-05
2.6077968e-08
1.7835077e-07
3.0148994e-05
2.6834271e-08
1.7401104e-07
3.0013202e-05
2.7564683e-08
1.6983752e-07
2.9880797e-05
2.8268929e-08
1.6582021e-07
2.975164e-05
2.8947409e-08
1.6195012e-07
2.96256e-05
2.9600757e-08
1.5821895e-07
2.9502557e-05
3.022857e-08
1.5461922e-07
2.9382396e-05
3.0823583e-08
1.5114465e-07
2.9265007e-05
3.1393122e-08
1.4778877e-07
2.9150287e-05
3.193958e-08
1.4454538e-07
2.9038137e-05
3.2461873e-08
1.4140899e-07
2.8928465e-05
3.2960074e-08
1.3837463e-07
2.8821181e-05
3.3434718e-08
1.354375e-07
2.8716203e-05
3.3886341e-08
1.3259327e-07
2.8613449e-05
3.4315572e-08
1.2983785e-07
2.8512845e-05
3.4722884e-08
1.2716738e-07
2.8414317e-05
3.5108964e-08
1.2457815e-07
2.8317797e-05
3.5474422e-08
1.2206682e-07
2.8223219e-05
3.5819889e-08
1.1963007e-07
2.813052e-05
3.6145929e-08
1.1726494e-07
2.803964e-05
3.6453088e-08
1.1496839e-07
2.7950522e-05
3.6741923e-08
1.1273774e-07
2.7863111e-05
3.7012822e-08
1.1057028e-07
2.7777354e-05
3.7266242e-08
1.0846343e-07
2.7693204e-05
3.7502436e-08
1.0641472e-07
2.761061e-05
3.7721587e-08
1.0442174e-07
2.752953e-05
3.792354e-08
1.0248205e-07
2.744992e-05
3.8107975e-08
1.0059309e-07
2.7371738e-05
3.8274272e-08
9.8752324e-08
2.7294949e-05
3.8421556e-08
9.6956931e-08
2.7219516e-05
3.8548732e-08
9.5203645e-08
2.714541e-05
3.8655119e-08
9.3488623e-08
2.7072603e-05
3.8741135e-08
9.1806937e-08
2.7001079e-05
3.8810259e-08
9.0152315e-08
2.6930832e-05
3.8872173e-08
8.8516547e-08
2.6861877e-05
3.8947436e-08
8.6890543e-08
2.679426e-05
3.9073532e-08
8.5269178e-08
2.6728065e-05
3.9306974e-08
8.3675945e-08
2.6663337e-05
3.970835e-08
8.2271154e-08
2.659956e-05
4.0271996e-08
8.183618e-08
2.6534295e-05
4.0698029e-08
8.4555739e-08
3.9620835e-08
1.1507135e-07
0.00010494757
5.6811081e-07
6.5033076e-06
9.8925416e-05
1.0462983e-06
6.6283517e-06
9.3480449e-05
1.3439845e-06
6.1835066e-06
8.8341777e-05
1.4751324e-06
5.9184763e-06
8.3502084e-05
1.4993911e-06
5.6187065e-06
7.9004057e-05
1.4572411e-06
5.2482679e-06
7.4853978e-05
1.3667382e-06
4.8478757e-06
7.1037378e-05
1.2423973e-06
4.4464569e-06
6.7536063e-05
1.0997693e-06
4.0563127e-06
6.4331998e-05
9.5192361e-07
3.683491e-06
6.1407318e-05
8.0805754e-07
3.3320524e-06
5.8744339e-05
6.7422202e-07
3.0046209e-06
5.6325632e-05
5.5404397e-07
2.7024907e-06
5.4133973e-05
4.4916749e-07
2.4259383e-06
5.2152298e-05
3.59724e-07
2.174536e-06
5.0363747e-05
2.8484513e-07
1.9473717e-06
4.875178e-05
2.2310003e-07
1.7432015e-06
4.7300339e-05
1.7281167e-07
1.5605647e-06
4.5994012e-05
1.3226573e-07
1.3978747e-06
4.4818177e-05
9.9840023e-08
1.2534891e-06
4.3759121e-05
7.4075613e-08
1.1257614e-06
4.2804123e-05
5.3707645e-08
1.0130814e-06
4.1941503e-05
3.7671215e-08
9.1390374e-07
4.1160627e-05
2.5096478e-08
8.2676732e-07
4.0451891e-05
1.5294178e-08
7.5030387e-07
3.980679e-05
7.5281912e-09
6.8329177e-07
3.9217543e-05
1.6727721e-09
6.2455205e-07
3.8677513e-05
-3.0331397e-09
5.7313083e-07
3.8180739e-05
-6.6486818e-09
5.2807354e-07
3.7722004e-05
-9.3595088e-09
4.8853448e-07
3.7296777e-05
-1.1371786e-08
4.5378927e-07
3.6901112e-05
-1.2818209e-08
4.2319911e-07
3.6531588e-05
-1.3805289e-08
3.9620476e-07
3.6185236e-05
-1.4417485e-08
3.7231873e-07
3.5859491e-05
-1.4721874e-08
3.5111775e-07
3.5552132e-05
-1.4772628e-08
3.3223579e-07
3.5261237e-05
-1.4613891e-08
3.1535727e-07
3.4985143e-05
-1.4282153e-08
3.0021091e-07
3.472241e-05
-1.3807713e-08
2.8656377e-07
3.4471787e-05
-1.3215886e-08
2.7421634e-07
3.4232185e-05
-1.2528187e-08
2.6299771e-07
3.4002657e-05
-1.1762789e-08
2.5276174e-07
3.3782373e-05
-1.093525e-08
2.4338337e-07
3.3570606e-05
-1.0058778e-08
2.3475557e-07
3.3366714e-05
-9.1447342e-09
2.2678674e-07
3.3170131e-05
-8.2028117e-09
2.1939834e-07
3.2980356e-05
-7.2412295e-09
2.1252299e-07
3.279694e-05
-6.2669069e-09
2.0610284e-07
3.2619482e-05
-5.2855406e-09
2.0008786e-07
3.2447623e-05
-4.301819e-09
1.9443478e-07
3.228104e-05
-3.3190377e-09
1.8910587e-07
3.2119438e-05
-2.3383135e-09
1.8406735e-07
3.1962554e-05
-1.3530265e-09
1.7928647e-07
3.1810075e-05
-2.7629458e-10
1.7472766e-07
3.1661878e-05
5.8585177e-10
1.7043906e-07
3.1517732e-05
1.4355992e-09
1.6637295e-07
3.1377429e-05
2.3038377e-09
1.624896e-07
3.1240792e-05
3.1586356e-09
1.5877484e-07
3.1107656e-05
3.9969846e-09
1.5521716e-07
3.0977867e-05
4.8171728e-09
1.5180548e-07
3.0851284e-05
5.6179769e-09
1.4852968e-07
3.0727774e-05
6.3990584e-09
1.4538077e-07
3.0607209e-05
7.1609307e-09
1.4235052e-07
3.0489473e-05
7.90595e-09
1.3943119e-07
3.037445e-05
8.6357421e-09
1.3661578e-07
3.0262049e-05
9.320659e-09
1.3390397e-07
3.0152163e-05
9.9938177e-09
1.3128565e-07
3.0044697e-05
1.0650377e-08
1.2875514e-07
2.9939564e-05
1.1286748e-08
1.2630826e-07
2.983668e-05
1.1903214e-08
1.2394086e-07
2.9735965e-05
1.2500167e-08
1.2164881e-07
2.9637345e-05
1.3077879e-08
1.1942842e-07
2.9540748e-05
1.3636707e-08
1.1727615e-07
2.9446105e-05
1.4177007e-08
1.1518882e-07
2.9353352e-05
1.4699166e-08
1.1316339e-07
2.9262425e-05
1.5203515e-08
1.1119703e-07
2.9173268e-05
1.5690496e-08
1.0928707e-07
2.9085822e-05
1.6160408e-08
1.0743109e-07
2.9000035e-05
1.6613573e-08
1.0562664e-07
2.8915855e-05
1.70504e-08
1.0387152e-07
2.8833233e-05
1.7471116e-08
1.0216363e-07
2.8752123e-05
1.787597e-08
1.0050079e-07
2.8672479e-05
1.8265086e-08
9.8881097e-08
2.8594259e-05
1.8638558e-08
9.7302488e-08
2.8517424e-05
1.8996233e-08
9.5762978e-08
2.8441934e-05
1.9337816e-08
9.4260364e-08
2.8367753e-05
1.9662803e-08
9.279235e-08
2.8294848e-05
1.9970478e-08
9.1356244e-08
2.8223187e-05
2.0260034e-08
8.9948856e-08
2.8152746e-05
2.0530723e-08
8.8565928e-08
2.8083503e-05
2.0782626e-08
8.7201815e-08
2.8015447e-05
2.1017545e-08
8.5848706e-08
2.7948582e-05
2.1240724e-08
8.4495839e-08
2.7882937e-05
2.1462724e-08
8.3129526e-08
2.7818575e-05
2.1699995e-08
8.1736517e-08
2.7755588e-05
2.196932e-08
8.0324372e-08
2.7694014e-05
2.2266188e-08
7.9016077e-08
2.7633299e-05
2.2506303e-08
7.8480639e-08
2.7571004e-05
2.239343e-08
8.059946e-08
2.0993087e-08
1.0779947e-07
0.00010489986
2.7443378e-07
6.5049155e-06
9.8802772e-05
5.0716635e-07
6.6362236e-06
9.329591e-05
6.5854978e-07
6.1922972e-06
8.8116302e-05
7.2902546e-07
5.9257148e-06
8.3248198e-05
7.4378813e-07