/*--------------------------------*- C++ -*----------------------------------*\
  =========                 |
  \\      /  F ield         | OpenFOAM: The Open Source CFD Toolbox
   \\    /   O peration     | Website:  https://openfoam.org
    \\  /    A nd           | Version:  7
     \\/     M anipulation  |
\*---------------------------------------------------------------------------*/
FoamFile
{
    version     2.0;
    format      ascii;
    class       surfaceScalarField;
    location    "450/water";
    object      phi;
}
// * * * * * * * * * * * * * * * * * * * * * * * * * * * * * * * * * * * * * //

dimensions      [1 0 -1 0 0 0 0];

internalField   nonuniform List<scalar> 
156660
(
9.9057239e-05
6.0010402e-06
6.0528092e-06
8.6847498e-05
6.0555113e-06
6.1542307e-06
7.5687891e-05
5.5111362e-06
5.6484701e-06
6.5441704e-05
5.0404181e-06
5.2057689e-06
5.6267661e-05
4.4956436e-06
4.6783992e-06
4.8318019e-05
3.8797648e-06
4.0698778e-06
4.1624776e-05
3.2524448e-06
3.4407982e-06
3.6124897e-05
2.660462e-06
2.839417e-06
3.1692235e-05
2.1345127e-06
2.2981489e-06
2.8162841e-05
1.6926975e-06
1.8366964e-06
2.5361437e-05
1.3399934e-06
1.4614113e-06
2.3124664e-05
1.0698476e-06
1.1669256e-06
2.1315127e-05
8.6875419e-07
9.4078224e-07
1.9825714e-05
7.2110065e-07
7.6831273e-07
1.8577278e-05
6.1248249e-07
6.3595307e-07
1.7513255e-05
5.312522e-07
5.327715e-07
1.6593744e-05
4.6879723e-07
4.5071349e-07
1.5790433e-05
4.1913719e-07
3.8417388e-07
1.5082784e-05
3.7829071e-07
3.2935848e-07
1.4455417e-05
3.4367127e-07
2.8369563e-07
1.3896409e-05
3.1361406e-07
2.4539335e-07
1.339622e-05
2.870445e-07
2.1314452e-07
1.2947015e-05
2.6326033e-07
1.8594511e-07
1.2542237e-05
2.4179366e-07
1.6298462e-07
1.2176318e-05
2.2232206e-07
1.4359691e-07
1.1844484e-05
2.046148e-07
1.2721882e-07
1.1542609e-05
1.8849494e-07
1.1337975e-07
1.1267116e-05
1.7381575e-07
1.0167794e-07
1.1014892e-05
1.6046272e-07
9.1760861e-08
1.0783252e-05
1.4833966e-07
8.3300592e-08
1.0569851e-05
1.3734903e-07
7.6052126e-08
1.0372614e-05
1.2738863e-07
6.9848318e-08
1.0189731e-05
1.1836809e-07
6.4514841e-08
1.001963e-05
1.1020446e-07
5.9896624e-08
9.8609388e-06
1.028192e-07
5.587166e-08
9.7124594e-06
9.613796e-08
5.2341352e-08
9.5731439e-06
9.0091176e-08
4.9224346e-08
9.4420759e-06
8.4614474e-08
4.6453574e-08
9.3184531e-06
7.9648678e-08
4.3974116e-08
9.2015723e-06
7.5139712e-08
4.1741077e-08
9.0908166e-06
7.1038175e-08
3.9717557e-08
8.9856432e-06
6.7301134e-08
3.7872317e-08
8.8855707e-06
6.3894242e-08
3.6178135e-08
8.7901757e-06
6.0780071e-08
3.4614943e-08
8.6990829e-06
5.7926181e-08
3.3166655e-08
8.6119591e-06
5.5303744e-08
3.1820146e-08
8.5285072e-06
5.2887468e-08
3.0564411e-08
8.4484619e-06
5.0655076e-08
2.9390288e-08
8.3715848e-06
4.8587042e-08
2.8290025e-08
8.2976614e-06
4.6666165e-08
2.7257205e-08
8.2264975e-06
4.4877455e-08
2.6286399e-08
8.1579202e-06
4.3208765e-08
2.536852e-08
8.0917731e-06
4.1649031e-08
2.4498036e-08
8.0279108e-06
4.0186985e-08
2.3675359e-08
7.9662005e-06
3.8812687e-08
2.2897562e-08
7.9065219e-06
3.7518396e-08
2.2160249e-08
7.8487639e-06
3.6297863e-08
2.1460149e-08
7.7928241e-06
3.5145154e-08
2.0794586e-08
7.7386083e-06
3.4054623e-08
2.0161132e-08
7.6860293e-06
3.3021347e-08
1.9557707e-08
7.6350063e-06
3.2040806e-08
1.8982265e-08
7.5854641e-06
3.110906e-08
1.8433068e-08
7.537333e-06
3.0222594e-08
1.7908491e-08
7.4905478e-06
2.9378231e-08
1.7407013e-08
7.4450476e-06
2.8573027e-08
1.6927189e-08
7.4007755e-06
2.7804246e-08
1.6467795e-08
7.3576783e-06
2.7069575e-08
1.602764e-08
7.3157056e-06
2.6367036e-08
1.5605625e-08
7.2748103e-06
2.5694636e-08
1.5200694e-08
7.2349479e-06
2.5050571e-08
1.4811857e-08
7.1960766e-06
2.4433116e-08
1.4438203e-08
7.158157e-06
2.3840677e-08
1.4078919e-08
7.1211518e-06
2.3271922e-08
1.3733275e-08
7.0850258e-06
2.272549e-08
1.3400526e-08
7.0497457e-06
2.2200226e-08
1.3079937e-08
7.0152798e-06
2.1694922e-08
1.2770912e-08
6.9815985e-06
2.1208562e-08
1.247278e-08
6.9486733e-06
2.0740216e-08
1.2184912e-08
6.9164775e-06
2.0288995e-08
1.1906803e-08
6.8849857e-06
1.9853962e-08
1.1637821e-08
6.8541739e-06
1.9434381e-08
1.1377423e-08
6.8240194e-06
1.9029463e-08
1.1125105e-08
6.7945006e-06
1.863848e-08
1.0880245e-08
6.7655976e-06
1.8260779e-08
1.064231e-08
6.7372912e-06
1.789556e-08
1.0410746e-08
6.7095641e-06
1.7542109e-08
1.0185082e-08
6.6823995e-06
1.7199633e-08
9.9648632e-09
6.6557825e-06
1.6867293e-08
9.7498315e-09
6.6296984e-06
1.6544147e-08
9.5399883e-09
6.6041331e-06
1.6229244e-08
9.3359951e-09
6.5790715e-06
1.5921968e-08
9.1396651e-09
6.554494e-06
1.5622319e-08
8.9551125e-09
6.5303708e-06
1.5332527e-08
8.7906533e-09
6.5066467e-06
1.5060469e-08
8.6636046e-09
6.4832094e-06
1.4827796e-08
8.6094866e-09
6.4598103e-06
1.469307e-08
8.7060277e-09
6.4358388e-06
1.4826404e-08
9.1451532e-09
6.4096303e-06
1.5741751e-08
1.0466766e-08
6.3782855e-06
1.802659e-08
1.3318223e-08
3.2300183e-08
2.792356e-08
0.00010646494
4.1872385e-06
6.4599816e-06
0.0001002019
5.695418e-06
6.6231353e-06
9.3659588e-05
5.7790389e-06
6.2744098e-06
8.7011589e-05
5.6514783e-06
6.0369387e-06
8.0422927e-05
5.366912e-06
5.7173941e-06
7.4094022e-05
4.9022832e-06
5.3063863e-06
6.8167026e-05
4.3278135e-06
4.8516273e-06
6.2722565e-05
3.717891e-06
4.387032e-06
5.7799049e-05
3.1243144e-06
3.9337144e-06
5.3403345e-05
2.5820689e-06
3.5063329e-06
4.9517402e-05
2.1121062e-06
3.1138299e-06
4.6105482e-05
1.7220197e-06
2.7597474e-06
4.3121558e-05
1.4089355e-06
2.4437429e-06
4.0515558e-05
1.1637552e-06
2.163346e-06
3.8237948e-05
9.7485848e-07
1.9152336e-06
3.6242683e-05
8.3055975e-07
1.6959573e-06
3.4488759e-05
7.2043697e-07
1.5022849e-06
3.2940716e-05
6.3586293e-07
1.3313172e-06
3.1568463e-05
5.7005003e-07
1.1804931e-06
3.0346733e-05
5.1784896e-07
1.0475522e-06
2.9254398e-05
4.7545954e-07
9.3049033e-07
2.8273782e-05
4.4013956e-07
8.2752027e-07
2.7390054e-05
4.0994894e-07
7.3704012e-07
2.6590699e-05
3.8353955e-07
6.5760858e-07
2.5865102e-05
3.5998889e-07
5.8793072e-07
2.5204198e-05
3.3867633e-07
5.2684263e-07
2.4600205e-05
3.1918359e-07
4.7330348e-07
2.4046429e-05
3.0120196e-07
4.2639018e-07
2.3537073e-05
2.845521e-07
3.8526714e-07
2.3067119e-05
2.6911104e-07
3.491824e-07
2.2632208e-05
2.5478166e-07
3.1747785e-07
2.2228528e-05
2.4147383e-07
2.8959533e-07
2.1852744e-05
2.2911071e-07
2.6504124e-07
2.1501947e-05
2.1762893e-07
2.4337256e-07
2.1173591e-05
2.069695e-07
2.2420575e-07
2.0865444e-05
1.9707567e-07
2.0720871e-07
2.0575549e-05
1.8789255e-07
1.92094e-07
2.0302183e-05
1.7936725e-07
1.7861344e-07
2.0043829e-05
1.7144912e-07
1.665532e-07
1.979915e-05
1.6408983e-07
1.5572943e-07
1.956696e-05
1.5724383e-07
1.4598404e-07
1.934621e-05
1.5086898e-07
1.3718217e-07
1.9135969e-05
1.4492652e-07
1.2920881e-07
1.8935407e-05
1.3937905e-07
1.2196309e-07
1.8743783e-05
1.3419232e-07
1.1535763e-07
1.8560435e-05
1.2933511e-07
1.0931728e-07
1.8384766e-05
1.2477906e-07
1.0377716e-07
1.8216241e-05
1.2049853e-07
9.8681295e-08
1.8054377e-05
1.1647013e-07
9.3981306e-08
1.7898734e-05
1.1267293e-07
8.963543e-08
1.7748917e-05
1.0908822e-07
8.5607012e-08
1.7604563e-05
1.0570001e-07
8.186241e-08
1.7465345e-05
1.0249337e-07
7.8373241e-08
1.7330962e-05
9.9453016e-08
7.5116993e-08
1.7201138e-05
9.6564429e-08
7.2072727e-08
1.7075619e-05
9.3816665e-08
6.9221148e-08
1.695417e-05
9.1201139e-08
6.6545087e-08
1.6836577e-05
8.8709145e-08
6.4029521e-08
1.6722638e-05
8.633196e-08
6.1661036e-08
1.661217e-05
8.4061755e-08
5.9427689e-08
1.6505001e-05
8.1891529e-08
5.7318828e-08
1.640097e-05
7.9814918e-08
5.532483e-08
1.6299929e-05
7.7826171e-08
5.3437133e-08
1.620174e-05
7.5919857e-08
5.1647932e-08
1.6106272e-05
7.4091052e-08
4.9950144e-08
1.6013404e-05
7.2334977e-08
4.83374e-08
1.5923022e-05
7.0647719e-08
4.6803907e-08
1.5835019e-05
6.9025719e-08
4.5344297e-08
1.5749294e-05
6.7465552e-08
4.3953716e-08
1.5665753e-05
6.5963803e-08
4.2627699e-08
1.5584307e-05
6.4517335e-08
4.1362145e-08
1.5504871e-05
6.3123394e-08
4.0153349e-08
1.5427365e-05
6.1779299e-08
3.8997781e-08
1.5351716e-05
6.048256e-08
3.7892291e-08
1.5277852e-05
5.9230856e-08
3.6833858e-08
1.5205705e-05
5.8022005e-08
3.5819728e-08
1.5135212e-05
5.6854024e-08
3.4847381e-08
1.5066313e-05
5.5724959e-08
3.3914336e-08
1.499895e-05
5.4633132e-08
3.3018422e-08
1.493307e-05
5.3576736e-08
3.215743e-08
1.4868621e-05
5.2554205e-08
3.1329408e-08
1.4805554e-05
5.1563972e-08
3.0532424e-08
1.4743823e-05
5.0604504e-08
2.9764658e-08
1.4683386e-05
4.9674295e-08
2.9024369e-08
1.4624199e-05
4.877181e-08
2.8309845e-08
1.4566226e-05
4.7895453e-08
2.7619571e-08
1.4509431e-05
4.7043484e-08
2.6951979e-08
1.4453778e-05
4.6214103e-08
2.630574e-08
1.4399237e-05
4.5405425e-08
2.5679864e-08
1.4345777e-05
4.4615717e-08
2.5073738e-08
1.4293367e-05
4.3844213e-08
2.4487684e-08
1.4241972e-05
4.3092829e-08
2.3923748e-08
1.4191548e-05
4.236988e-08
2.3387136e-08
1.4142019e-05
4.1699302e-08
2.2889649e-08
1.4093249e-05
4.1141619e-08
2.2456636e-08
1.4044951e-05
4.084466e-08
2.214655e-08
1.3996485e-05
4.1169199e-08
2.2123017e-08
1.3946229e-05
4.3012275e-08
2.2985393e-08
1.389015e-05
4.8540235e-08
2.5565785e-08
6.3281535e-08
5.0000873e-08
0.00010603565
2.7876425e-06
6.4750379e-06
0.00010074799
4.4145413e-06
6.5685292e-06
9.5493515e-05
4.8594028e-06
6.1741158e-06
9.0256432e-05
4.930369e-06
5.9581921e-06
8.5101366e-05
4.8311767e-06
5.6908012e-06
8.0102875e-05
4.5561761e-06
5.3445981e-06
7.5322251e-05
4.1469521e-06
4.9614853e-06
7.0803266e-05
3.6678926e-06
4.5689837e-06
6.6576264e-05
3.1701903e-06
4.1811255e-06
6.2660725e-05
2.690011e-06
3.8075976e-06
5.9065443e-05
2.2519318e-06
3.4554566e-06
5.5788936e-05
1.8697304e-06
3.1287958e-06
5.2820978e-05
1.5477473e-06
2.8291458e-06
5.014479e-05
1.2836302e-06
2.5563139e-06
4.7739304e-05
1.07123e-06
2.3091141e-06
4.5581183e-05
9.0281505e-07
2.0858661e-06
4.3646423e-05
7.7048781e-07
1.884709e-06
4.1911533e-05
6.6697372e-07
1.7037793e-06
4.0354306e-05
5.8598197e-07
1.541295e-06
3.8954268e-05
5.223022e-07
1.3955849e-06
3.769288e-05
4.7175604e-07
1.265091e-06
3.6553576e-05
4.3107985e-07
1.1483634e-06
3.552169e-05
3.9778206e-07
1.0440533e-06
3.4584322e-05
3.6999883e-07
9.5090827e-07
3.3730181e-05
3.4635985e-07
8.6777015e-07
3.2949411e-05
3.2587762e-07
7.9356869e-07
3.2233419e-05
3.0784047e-07
7.2733484e-07
3.1574711e-05
2.9172982e-07
6.6818105e-07
3.0966769e-05
2.7719266e-07
6.1530129e-07
3.0403928e-05
2.6398099e-07
5.679702e-07
2.9881258e-05
2.5190846e-07
5.2554315e-07
2.9394455e-05
2.4082712e-07
4.8745004e-07
2.8939761e-05
2.3062157e-07
4.5318328e-07
2.8513895e-05
2.212015e-07
4.2229385e-07
2.8113985e-05
2.1249195e-07
3.9438676e-07
2.7737518e-05
2.0442796e-07
3.6911495e-07
2.7382285e-05
1.9695195e-07
3.4617385e-07
2.7046344e-05
1.9001177e-07
3.2529682e-07
2.6727982e-05
1.8355993e-07
3.0625046e-07
2.6425689e-05
1.7755277e-07
2.8883086e-07
2.6138123e-05
1.7195005e-07
2.7285982e-07
2.5864094e-05
1.6671517e-07
2.5818182e-07
2.5602546e-05
1.6181458e-07
2.4466091e-07
2.535253e-05
1.572171e-07
2.3217766e-07
2.51132e-05
1.5289443e-07
2.2062727e-07
2.4883797e-05
1.4882096e-07
2.0991773e-07
2.4663634e-05
1.4497367e-07
1.9996811e-07
2.4452094e-05
1.4133183e-07
1.9070704e-07
2.4248615e-05
1.3787697e-07
1.8207153e-07
2.405269e-05
1.3459265e-07
1.7400571e-07
2.3863854e-05
1.3146461e-07
1.6645988e-07
2.3681684e-05
1.2848058e-07
1.5938924e-07
2.3505794e-05
1.256292e-07
1.5275411e-07
2.3335829e-05
1.2289872e-07
1.4651969e-07
2.3171462e-05
1.2027638e-07
1.4065463e-07
2.3012394e-05
1.1775473e-07
1.3513023e-07
2.2858345e-05
1.1532972e-07
1.2992042e-07
2.2709057e-05
1.1299538e-07
1.2500174e-07
2.2564291e-05
1.1074518e-07
1.2035288e-07
2.2423824e-05
1.0857345e-07
1.1595457e-07
2.2287451e-05
1.0647551e-07
1.1178924e-07
2.2154978e-05
1.0444703e-07
1.078408e-07
2.2026226e-05
1.024842e-07
1.0409459e-07
2.1901025e-05
1.005835e-07
1.0053716e-07
2.1779218e-05
9.8741544e-08
9.7156156e-08
2.1660658e-05
9.6954891e-08
9.3940282e-08
2.1545205e-05
9.5221287e-08
9.0879086e-08
2.1432729e-05
9.3538825e-08
8.7962814e-08
2.1323107e-05
9.1905355e-08
8.5182603e-08
2.1216222e-05
9.0318549e-08
8.2530151e-08
2.1111965e-05
8.8776401e-08
7.9997873e-08
2.1010233e-05
8.7277122e-08
7.7578638e-08
2.0910927e-05
8.5818966e-08
7.5265863e-08
2.0813956e-05
8.4400367e-08
7.3053425e-08
2.0719232e-05
8.3019717e-08
7.0935672e-08
2.0626671e-05
8.1675656e-08
6.8907192e-08
2.0536195e-05
8.0366847e-08
6.696311e-08
2.0447729e-05
7.9091971e-08
6.5098769e-08
2.0361203e-05
7.7849829e-08
6.3309766e-08
2.0276548e-05
7.6639212e-08
6.1592034e-08
2.0193702e-05
7.5458999e-08
5.9941757e-08
2.0112602e-05
7.4307975e-08
5.8355218e-08
2.0033193e-05
7.3184957e-08
5.6829045e-08
1.9955419e-05
7.2088653e-08
5.5359959e-08
1.9879228e-05
7.1017625e-08
5.394484e-08
1.9804572e-05
6.9970442e-08
5.2580709e-08
1.9731406e-05
6.8945264e-08
5.1264808e-08
1.9659685e-05
6.7940127e-08
4.9994383e-08
1.9589371e-05
6.6953059e-08
4.8767034e-08
1.9520423e-05
6.5982376e-08
4.7580525e-08
1.9452807e-05
6.5028017e-08
4.6433116e-08
1.9386482e-05
6.4094118e-08
4.5323741e-08
1.9321404e-05
6.319466e-08
4.4253074e-08
1.9257511e-05
6.2366339e-08
4.3225236e-08
1.9194705e-05
6.1695153e-08
4.2253152e-08
1.9132798e-05
6.1374075e-08
4.1377417e-08
1.9071394e-05
6.1822418e-08
4.0750678e-08
1.9009424e-05
6.3924709e-08
4.1057597e-08
1.8944661e-05
6.9304683e-08
4.3998859e-08
7.9170946e-08
7.4661573e-08
0.0001054937
1.9169871e-06
6.4880406e-06
0.00010005365
3.2729596e-06
6.5816334e-06
9.4926077e-05
3.8288995e-06
6.1580776e-06
8.9946373e-05
3.9838108e-06
5.9262629e-06
8.5163276e-05
3.9595077e-06
5.6547657e-06
8.0619137e-05
3.7899368e-06
5.3103784e-06
7.6329462e-05
3.5015547e-06
4.9350725e-06
7.230016e-05
3.1412013e-06
4.5559928e-06
6.8534206e-05
2.7514802e-06
4.1846641e-06
6.5032983e-05
2.3633493e-06
3.8278852e-06
6.1795789e-05
1.9984144e-06
3.490711e-06
5.8818843e-05
1.670376e-06
3.176301e-06
5.6094717e-05
1.3858295e-06
2.886043e-06
5.3612488e-05
1.1457945e-06
2.6200649e-06
5.1358373e-05
9.4764119e-07
2.3777043e-06
4.9316593e-05
7.8676784e-07
2.1578272e-06
4.7470246e-05
6.5779549e-07
1.9590391e-06
4.5802069e-05
5.5532542e-07
1.7798252e-06
4.4295042e-05
4.7437114e-07
1.6186378e-06
4.293283e-05
4.1056669e-07
1.473948e-06
4.1700078e-05
3.602324e-07
1.3442759e-06
4.0582591e-05
3.2035745e-07
1.2282094e-06
3.956742e-05
2.8853737e-07
1.1244154e-06
3.8642881e-05
2.6289063e-07
1.0316467e-06
3.7798527e-05
2.4196986e-07
9.4874402e-07
3.7025076e-05
2.2467702e-07
8.7465169e-07
3.6314324e-05
2.1018899e-07
8.0840411e-07
3.5659057e-05
1.9788603e-07
7.4911041e-07
3.5052961e-05
1.8731583e-07
6.9597282e-07
3.4490519e-05
1.7814873e-07
6.4827381e-07
3.3966922e-05
1.7013175e-07
6.0537442e-07
3.3477973e-05
1.6306728e-07
5.6670867e-07
3.3020016e-05
1.5680296e-07
5.3177541e-07
3.2589865e-05
1.5122053e-07
5.0013242e-07
3.218474e-05
1.4622562e-07
4.7139139e-07
3.1802215e-05
1.4174074e-07
4.4521235e-07
3.1440168e-05
1.3770095e-07
4.2129813e-07
3.1096739e-05
1.3405096e-07
3.9938926e-07
3.0770297e-05
1.3074294e-07
3.7925955e-07
3.0459402e-05
1.277352e-07
3.6071197e-07
3.0162787e-05
1.2499091e-07
3.4357477e-07
2.9879325e-05
1.2247787e-07
3.2769848e-07
2.960802e-05
1.2016733e-07
3.129527e-07
2.934798e-05
1.1803383e-07
2.9922352e-07
2.9098408e-05
1.1605464e-07
2.8641136e-07
2.885859e-05
1.1420984e-07
2.7442905e-07
2.8627882e-05
1.1248191e-07
2.6319999e-07
2.8405701e-05
1.1085558e-07
2.5265681e-07
2.819152e-05
1.0931759e-07
2.4274021e-07
2.7984859e-05
1.0785649e-07
2.3339757e-07
2.7785279e-05
1.0646279e-07
2.2458212e-07
2.7592378e-05
1.0512871e-07
2.1625216e-07
2.740579e-05
1.0384733e-07
2.0837034e-07
2.7225174e-05
1.0261119e-07
2.0090359e-07
2.705022e-05
1.0140748e-07
1.9382258e-07
2.6880641e-05
1.0023386e-07
1.8710042e-07
2.6716166e-05
9.9092355e-08
1.8071223e-07
2.6556546e-05
9.7980011e-08
1.7463555e-07
2.6401548e-05
9.6892538e-08
1.6885013e-07
2.6250957e-05
9.5827095e-08
1.633374e-07
2.610457e-05
9.4781689e-08
1.5808044e-07
2.5962199e-05
9.3754724e-08
1.5306363e-07
2.5823666e-05
9.2744856e-08
1.482726e-07
2.5688804e-05
9.1750963e-08
1.4369414e-07
2.5557458e-05
9.0771751e-08
1.3931598e-07
2.5429481e-05
8.9805181e-08
1.3512694e-07
2.5304734e-05
8.8851463e-08
1.3111647e-07
2.5183087e-05
8.7911213e-08
1.2727465e-07
2.5064416e-05
8.6983919e-08
1.2359243e-07
2.4948604e-05
8.6068913e-08
1.2006119e-07
2.4835542e-05
8.5165833e-08
1.1667301e-07
2.4725124e-05
8.4274386e-08
1.1342046e-07
2.4617252e-05
8.3394295e-08
1.1029656e-07
2.4511832e-05
8.2525498e-08
1.0729477e-07
2.4408775e-05
8.1667768e-08
1.0440899e-07
2.4307997e-05
8.0820973e-08
1.0163341e-07
2.4209416e-05
7.9985041e-08
9.8962626e-08
2.4112956e-05
7.9159754e-08
9.6391555e-08
2.4018546e-05
7.8345028e-08
9.3915264e-08
2.3926115e-05
7.7540706e-08
9.1529301e-08
2.3835598e-05
7.6746569e-08
8.922926e-08
2.3746933e-05
7.5962329e-08
8.7011052e-08
2.366006e-05
7.5187659e-08
8.4870714e-08
2.3574922e-05
7.4422022e-08
8.280451e-08
2.3491466e-05
7.3664666e-08
8.0808921e-08
2.3409641e-05
7.2914621e-08
7.8880363e-08
2.33294e-05
7.2170668e-08
7.7015473e-08
2.3250698e-05
7.1431344e-08
7.5211019e-08
2.3173493e-05
7.0694895e-08
7.3463601e-08
2.3097745e-05
6.9960221e-08
7.1770053e-08
2.3023418e-05
6.922799e-08
7.0127044e-08
2.2950477e-05
6.8503499e-08
6.8531211e-08
2.2878889e-05
6.7802884e-08
6.6979721e-08
2.2808619e-05
6.7165046e-08
6.5471548e-08
2.2739625e-05
6.6675258e-08
6.4013373e-08
2.267185e-05
6.6507064e-08
6.2642298e-08
2.2605149e-05
6.6990753e-08
6.1532373e-08
2.2538888e-05
6.8686047e-08
6.1499902e-08
2.2471121e-05
7.222696e-08
6.4845125e-08
7.6722855e-08
9.8461312e-08
0.0001051979
1.3340885e-06
6.4961221e-06
9.9496561e-05
2.3731022e-06
6.6011947e-06
9.4262459e-05
2.9019224e-06
6.1610799e-06
8.9251186e-05
3.0856642e-06
5.9094196e-06
8.4493498e-05
3.0947347e-06
5.6224614e-06
8.0033635e-05
2.9846657e-06
5.2651341e-06
7.5876907e-05
2.7790155e-06
4.8792667e-06
7.2014635e-05
2.5106844e-06
4.4927895e-06
6.8436293e-05
2.2128728e-06
4.116949e-06
6.5131387e-05
1.9107259e-06
3.7575291e-06
6.208941e-05
1.621732e-06
3.4186596e-06
5.9299432e-05
1.3573878e-06
3.1029661e-06
5.6749589e-05
1.1240344e-06
2.8116387e-06
5.4426788e-05
9.2377949e-07
2.5448158e-06
5.2316754e-05
7.5572801e-07
2.3019466e-06
5.0404313e-05
6.1717858e-07
2.0820302e-06
4.8673788e-05
5.0454347e-07
1.8837772e-06
4.7109414e-05
4.1397181e-07
1.7057274e-06
4.5695713e-05
3.4173651e-07
1.5463363e-06
4.4417792e-05
2.8445146e-07
1.4040359e-06
4.3261575e-05
2.3917113e-07
1.277278e-06
4.2213952e-05
2.0341504e-07
1.1645652e-06
4.1262871e-05
1.7514741e-07
1.0644719e-06
4.039737e-05
1.5273235e-07
9.7565897e-07
3.9607583e-05
1.3487532e-07
8.9688144e-07
3.8884688e-05
1.2055566e-07
8.2701637e-07
3.8220848e-05
1.0901092e-07
7.6501856e-07
3.7609155e-05
9.9633857e-08
7.099449e-07
3.7043542e-05
9.1977459e-08
6.6095088e-07
3.6518702e-05
8.5705826e-08
6.1728287e-07
3.6030009e-05
8.055238e-08
5.7827306e-07
3.5573433e-05
7.6308278e-08
5.4333413e-07
3.5145475e-05
7.2811263e-08
5.1195028e-07
3.4743091e-05
6.9934115e-08
4.8367022e-07
3.4363641e-05
6.757544e-08
4.5810066e-07
3.4004828e-05
6.5652875e-08
4.3489997e-07
3.3664659e-05
6.4098584e-08
4.1377213e-07
3.3341393e-05
6.2855881e-08
3.9446093e-07
3.3033513e-05
6.1877013e-08
3.767453e-07
3.2739693e-05
6.11211e-08
3.6043423e-07
3.2458768e-05
6.0553049e-08
3.4536328e-07
3.2189712e-05
6.0142669e-08
3.3139056e-07
3.1931622e-05
5.9863661e-08
3.1839375e-07
3.1683696e-05
5.9693161e-08
3.0626734e-07
3.1445219e-05
5.9611191e-08
2.9492008e-07
3.1215555e-05
5.9600631e-08
2.8427317e-07
3.0994132e-05
5.9646532e-08
2.7425809e-07
3.0780436e-05
5.9736182e-08
2.6481538e-07
3.0574002e-05
5.9858666e-08
2.5589334e-07
3.0374407e-05
6.000491e-08
2.4744663e-07
3.0181267e-05
6.0167614e-08
2.3943548e-07
2.9994229e-05
6.0341265e-08
2.3182488e-07
2.9812971e-05
6.0521795e-08
2.2458375e-07
2.9637193e-05
6.0704485e-08
2.1768456e-07
2.9466629e-05
6.0867303e-08
2.1110457e-07
2.9301024e-05
6.1017009e-08
2.0482181e-07
2.914014e-05
6.1160876e-08
1.988157e-07
2.8983756e-05
6.1294932e-08
1.9306838e-07
2.8831669e-05
6.141546e-08
1.8756389e-07
2.8683688e-05
6.152096e-08
1.8228762e-07
2.8539633e-05
6.1610551e-08
1.7722635e-07
2.8399336e-05
6.1683761e-08
1.7236785e-07
2.8262639e-05
6.1740471e-08
1.677009e-07
2.8129394e-05
6.1780656e-08
1.632152e-07
2.7999461e-05
6.180385e-08
1.5890121e-07
2.7872709e-05
6.1807341e-08
1.5475035e-07
2.7749012e-05
6.1793587e-08
1.5075443e-07
2.7628253e-05
6.1764834e-08
1.4690559e-07
2.7510319e-05
6.1721014e-08
1.4319661e-07
2.7395105e-05
6.1662143e-08
1.3962083e-07
2.728251e-05
6.1588671e-08
1.3617201e-07
2.7172439e-05
6.1501072e-08
1.3284422e-07
2.7064802e-05
6.1399995e-08
1.2963191e-07
2.6959511e-05
6.1285966e-08
1.2652991e-07
2.6856486e-05
6.1159556e-08
1.2353325e-07
2.6755649e-05
6.1021346e-08
1.2063731e-07
2.6656924e-05
6.0871899e-08
1.1783765e-07
2.6560242e-05
6.0711747e-08
1.1513014e-07
2.6465535e-05
6.0541401e-08
1.1251077e-07
2.6372738e-05
6.0361339e-08
1.0997579e-07
2.6281791e-05
6.0171973e-08
1.0752158e-07
2.6192636e-05
5.9973542e-08
1.0514471e-07
2.6105215e-05
5.9766331e-08
1.0284183e-07
2.6019477e-05
5.9550262e-08
1.0060969e-07
2.5935371e-05
5.9325167e-08
9.8445266e-08
2.585285e-05
5.9090509e-08
9.6345374e-08
2.5771868e-05
5.8845477e-08
9.4306938e-08
2.5692384e-05
5.8589026e-08
9.2326748e-08
2.5614357e-05
5.8319823e-08
9.0401438e-08
2.5537753e-05
5.8037082e-08
8.8527338e-08
2.5462539e-05
5.7741617e-08
8.6700225e-08
2.5388689e-05
5.7438398e-08
8.4915207e-08
2.5316184e-05
5.7141433e-08
8.316665e-08
2.5245017e-05
5.6882574e-08
8.1449645e-08
2.51752e-05
5.6726042e-08
7.9765808e-08
2.510677e-05
5.6787897e-08
7.814919e-08
2.5039729e-05
5.7251612e-08
7.6780973e-08
2.4973573e-05
5.833095e-08
7.651023e-08
2.4906079e-05
5.9989537e-08
7.9732161e-08
6.071503e-08
1.1287823e-07
0.00010503672
9.078937e-07
6.5005614e-06
9.9140653e-05
1.6524914e-06
6.6166802e-06
9.3788329e-05
2.0825242e-06
6.1717217e-06
8.8708526e-05
2.2549373e-06
5.91053e-06
8.3909682e-05
2.278404e-06
5.6151748e-06
7.9437109e-05
2.2074821e-06
5.2497564e-06
7.5296201e-05
2.0645348e-06
4.8553893e-06
7.1474034e-05
1.8722543e-06
4.460597e-06
6.7955013e-05
1.6547667e-06
4.0771269e-06
6.4723621e-05
1.4313505e-06
3.7107669e-06
6.1764423e-05
1.2154297e-06
3.3655007e-06
5.9062056e-05
1.015864e-06
3.0438911e-06
5.6601108e-05
8.3782745e-07
2.7471548e-06
5.4365944e-05
6.8344647e-07
2.475497e-06
5.2340648e-05
5.5258529e-07
2.2284383e-06
5.0509125e-05
4.436655e-07
2.0050361e-06
4.8855299e-05
3.5433458e-07
1.8040352e-06
4.7363353e-05
2.8193589e-07
1.6239821e-06
4.6017963e-05
2.2381346e-07
1.4633127e-06
4.4804503e-05
1.774938e-07
1.320418e-06
4.3709199e-05
1.4078089e-07
1.1936935e-06
4.2719248e-05
1.1179156e-07
1.081575e-06
4.1822875e-05
8.8954534e-08
9.8256585e-07
4.1009364e-05
7.098799e-08
8.952547e-07
4.0269054e-05
5.6861825e-08
8.183238e-07
3.9593306e-05
4.571913e-08
7.5058473e-07
3.8974405e-05
3.6977869e-08
6.9093436e-07
3.8405585e-05
3.0067376e-08
6.3838631e-07
3.7880869e-05
2.4650865e-08
5.9204241e-07
3.7395029e-05
2.0439959e-08
5.5110606e-07
3.6943514e-05
1.7190258e-08
5.1487715e-07
3.6522366e-05
1.4716729e-08
4.8273959e-07
3.6128148e-05
1.2874769e-08
4.5415391e-07
3.5757883e-05
1.1549888e-08
4.2864944e-07
3.5408991e-05
1.0650758e-08
4.0581702e-07
3.5079238e-05
1.01036e-08
3.8530225e-07
3.4766689e-05
9.8482331e-09
3.667988e-07
3.4469668e-05
9.8350732e-09
3.5004236e-07
3.4186716e-05
1.0022915e-08
3.3480552e-07
3.3916567e-05
1.0377027e-08
3.2089286e-07
3.3658116e-05
1.0868089e-08
3.0813658e-07
3.3410395e-05
1.1470992e-08
2.9639283e-07
3.3172556e-05
1.2164245e-08
2.8553826e-07
3.2943852e-05
1.2929276e-08
2.7546719e-07
3.2723625e-05
1.3750147e-08
2.6608895e-07
3.2511286e-05
1.4613112e-08
2.5732573e-07
3.2306316e-05
1.5506234e-08
2.4911067e-07
3.2108246e-05
1.6419598e-08
2.413862e-07
3.1916658e-05
1.734466e-08
2.341027e-07
3.1731171e-05
1.8274315e-08
2.2721712e-07
3.1551444e-05
1.9203165e-08
2.2069215e-07
3.1377162e-05
2.0127733e-08
2.1449509e-07
3.1208038e-05
2.1048648e-08
2.0859679e-07
3.10438e-05
2.1972776e-08
2.0297056e-07
3.0884232e-05
2.2827839e-08
1.9760737e-07
3.0729103e-05
2.3662989e-08
1.9248229e-07
3.05782e-05
2.4490028e-08
1.8757381e-07
3.0431331e-05
2.5296302e-08
1.8286763e-07
3.0288318e-05
2.6077995e-08
1.7835077e-07
3.0148994e-05
2.6834287e-08
1.7401105e-07
3.0013202e-05
2.7564656e-08
1.6983755e-07
2.9880797e-05
2.8268926e-08
1.6582024e-07
2.975164e-05
2.8947413e-08
1.6195015e-07
2.9625601e-05
2.9600755e-08
1.5821897e-07
2.9502557e-05
3.0228547e-08
1.5461918e-07
2.9382396e-05
3.0823592e-08
1.5114464e-07
2.9265007e-05
3.1393104e-08
1.4778877e-07
2.9150287e-05
3.1939589e-08
1.4454539e-07
2.9038137e-05
3.2461887e-08
1.41409e-07
2.8928465e-05
3.2960097e-08
1.383746e-07
2.8821181e-05
3.3434733e-08
1.354375e-07
2.8716203e-05
3.3886387e-08
1.325933e-07
2.8613449e-05
3.4315551e-08
1.2983786e-07
2.8512845e-05
3.4722906e-08
1.2716737e-07
2.8414317e-05
3.5109e-08
1.2457817e-07
2.8317797e-05
3.5474453e-08
1.2206681e-07
2.8223219e-05
3.5819906e-08
1.196301e-07
2.813052e-05
3.614593e-08
1.1726492e-07
2.803964e-05
3.6453094e-08
1.149684e-07
2.7950522e-05
3.6741886e-08
1.1273773e-07
2.7863111e-05
3.7012814e-08
1.1057025e-07
2.7777355e-05
3.7266267e-08
1.0846344e-07
2.7693204e-05
3.7502483e-08
1.0641473e-07
2.761061e-05
3.7721603e-08
1.0442174e-07
2.752953e-05
3.7923575e-08
1.0248199e-07
2.744992e-05
3.8108011e-08
1.0059305e-07
2.7371738e-05
3.8274268e-08
9.8752309e-08
2.7294949e-05
3.8421548e-08
9.6956921e-08
2.7219516e-05
3.8548714e-08
9.5203642e-08
2.714541e-05
3.8655114e-08
9.3488605e-08
2.7072603e-05
3.8741163e-08
9.1806968e-08
2.7001079e-05
3.8810296e-08
9.0152331e-08
2.6930832e-05
3.8872149e-08
8.8516561e-08
2.6861877e-05
3.8947429e-08
8.689053e-08
2.679426e-05
3.9073554e-08
8.5269192e-08
2.6728065e-05
3.9306995e-08
8.3675962e-08
2.6663337e-05
3.9708358e-08
8.2271157e-08
2.659956e-05
4.0272021e-08
8.1836184e-08
2.6534295e-05
4.0698047e-08
8.4555732e-08
3.9620839e-08
1.150713e-07
0.00010494757
5.6811083e-07
6.5033076e-06
9.8925416e-05
1.0462983e-06
6.6283516e-06
9.3480449e-05
1.3439845e-06
6.1835066e-06
8.8341777e-05
1.4751324e-06
5.9184763e-06
8.3502084e-05
1.4993911e-06
5.6187065e-06
7.9004057e-05
1.4572411e-06
5.2482679e-06
7.4853978e-05
1.3667382e-06
4.8478757e-06
7.1037378e-05
1.2423973e-06
4.4464569e-06
6.7536063e-05
1.0997693e-06
4.0563127e-06
6.4331998e-05
9.5192361e-07
3.6834909e-06
6.1407318e-05
8.0805756e-07
3.3320524e-06
5.8744339e-05
6.7422204e-07
3.0046209e-06
5.6325632e-05
5.5404399e-07
2.7024907e-06
5.4133973e-05
4.491675e-07
2.4259383e-06
5.2152298e-05
3.5972398e-07
2.1745359e-06
5.0363747e-05
2.8484514e-07
1.9473717e-06
4.875178e-05
2.2310006e-07
1.7432015e-06
4.7300339e-05
1.7281167e-07
1.5605647e-06
4.5994012e-05
1.3226572e-07
1.3978748e-06
4.4818177e-05
9.984003e-08
1.2534891e-06
4.3759121e-05
7.4075604e-08
1.1257614e-06
4.2804123e-05
5.370764e-08
1.0130814e-06
4.1941503e-05
3.767124e-08
9.1390379e-07
4.1160627e-05
2.5096511e-08
8.2676732e-07
4.0451891e-05
1.5294176e-08
7.5030386e-07
3.980679e-05
7.5281815e-09
6.8329177e-07
3.9217543e-05
1.6727691e-09
6.2455201e-07
3.8677513e-05
-3.0330995e-09
5.7313082e-07
3.8180739e-05
-6.6486644e-09
5.2807352e-07
3.7722004e-05
-9.3594961e-09
4.885345e-07
3.7296777e-05
-1.1371807e-08
4.5378927e-07
3.6901112e-05
-1.2818241e-08
4.2319914e-07
3.6531588e-05
-1.3805319e-08
3.962048e-07
3.6185236e-05
-1.4417527e-08
3.7231873e-07
3.5859491e-05
-1.4721887e-08
3.5111774e-07
3.5552132e-05
-1.4772634e-08
3.3223578e-07
3.5261237e-05
-1.4613916e-08
3.1535728e-07
3.4985143e-05
-1.4282184e-08
3.002109e-07
3.472241e-05
-1.38077e-08
2.8656375e-07
3.4471787e-05
-1.3215894e-08
2.7421629e-07
3.4232185e-05
-1.2528157e-08
2.6299767e-07
3.4002657e-05
-1.1762773e-08
2.5276171e-07
3.3782373e-05
-1.0935245e-08
2.4338336e-07
3.3570606e-05
-1.0058776e-08
2.3475557e-07
3.3366714e-05
-9.1447273e-09
2.2678675e-07
3.3170132e-05
-8.202817e-09
2.1939832e-07
3.2980356e-05
-7.2412127e-09
2.12523e-07
3.279694e-05
-6.2668403e-09
2.0610282e-07
3.2619482e-05
-5.285553e-09
2.0008782e-07
3.2447623e-05
-4.301825e-09
1.9443479e-07
3.228104e-05
-3.3190383e-09
1.8910586e-07
3.2119438e-05
-2.3383303e-09
1.8406735e-07
3.1962554e-05
-1.3530778e-09
1.7928646e-07
3.1810075e-05
-2.7631831e-10
1.7472765e-07
3.1661878e-05
5.8581792e-10
1.7043906e-07
3.1517732e-05
1.4355979e-09
1.663729e-07
3.1377429e-05
2.3038172e-09
1.6248957e-07
3.1240792e-05
3.1586356e-09
1.5877485e-07
3.1107656e-05
3.9969634e-09
1.5521721e-07
3.0977867e-05
4.8171832e-09
1.5180547e-07
3.0851284e-05
5.617954e-09
1.4852968e-07
3.0727774e-05
6.3990244e-09
1.453808e-07
3.0607209e-05
7.1609084e-09
1.4235053e-07
3.0489473e-05
7.9059273e-09
1.3943121e-07
3.037445e-05
8.6357531e-09
1.3661578e-07
3.0262049e-05
9.3206623e-09
1.3390398e-07
3.0152163e-05
9.9938063e-09
1.3128567e-07
3.0044697e-05
1.0650381e-08
1.2875514e-07
2.9939564e-05
1.1286728e-08
1.2630827e-07
2.983668e-05
1.1903214e-08
1.2394088e-07
2.9735965e-05
1.2500168e-08
1.2164884e-07
2.9637345e-05
1.3077889e-08
1.1942842e-07
2.9540748e-05
1.363675e-08
1.1727617e-07
2.9446105e-05
1.4177041e-08
1.1518879e-07
2.9353352e-05
1.4699182e-08
1.1316339e-07
2.9262425e-05
1.5203542e-08
1.1119701e-07
2.9173268e-05
1.5690511e-08
1.092871e-07
2.9085822e-05
1.616044e-08
1.074311e-07
2.9000035e-05
1.661359e-08
1.0562666e-07
2.8915855e-05
1.7050406e-08
1.0387155e-07
2.8833233e-05
1.7471114e-08
1.0216357e-07
2.8752123e-05
1.7875978e-08
1.005008e-07
2.8672479e-05
1.8265088e-08
9.8881089e-08
2.8594259e-05
1.8638532e-08
9.7302508e-08
2.8517424e-05
1.8996181e-08
9.576294e-08
2.8441934e-05
1.9337798e-08
9.4260316e-08
2.8367753e-05
1.9662839e-08
9.2792323e-08
2.8294848e-05
1.9970486e-08
9.1356266e-08
2.8223187e-05
2.0260009e-08
8.9948874e-08
2.8152746e-05
2.053068e-08
8.8565913e-08
2.8083503e-05
2.0782609e-08
8.7201793e-08
2.8015447e-05
2.1017564e-08
8.5848684e-08
2.7948582e-05
2.1240751e-08
8.4495855e-08
2.7882937e-05
2.146274e-08
8.3129484e-08
2.7818574e-05
2.1699989e-08
8.1736531e-08
2.7755588e-05
2.1969305e-08
8.0324387e-08
2.7694014e-05
2.2266183e-08
7.9016113e-08
2.7633299e-05
2.2506279e-08
7.8480665e-08
2.7571004e-05
2.2393422e-08
8.0599486e-08
2.0993098e-08
1.0779948e-07
0.00010489986
2.7443377e-07
6.5049155e-06
9.8802772e-05
5.0716632e-07
6.6362236e-06
9.329591e-05
6.5854975e-07
6.1922972e-06
8.8116302e-05
7.2902544e-07
5.9257148e-06
8.3248198e-05
7.4378813e-07