/*--------------------------------*- C++ -*----------------------------------*\
  =========                 |
  \\      /  F ield         | OpenFOAM: The Open Source CFD Toolbox
   \\    /   O peration     | Website:  https://openfoam.org
    \\  /    A nd           | Version:  7
     \\/     M anipulation  |
\*---------------------------------------------------------------------------*/
FoamFile
{
    version     2.0;
    format      ascii;
    class       volVectorField;
    location    "450/water";
    object      U;
}
// * * * * * * * * * * * * * * * * * * * * * * * * * * * * * * * * * * * * * //

dimensions      [0 1 -1 0 0 0 0];

internalField   nonuniform List<vector> 
54000
(
(0.0090020934 0.00020305973 0.00020444027)
(0.0083186447 0.00023622738 0.00023904411)
(0.0073695241 0.00021363852 0.00021763527)
(0.0063566114 0.00018488016 0.00018965819)
(0.0054486673 0.00015530836 0.00016048633)
(0.0046741594 0.00012529952 0.00013052937)
(0.0040193038 9.7052611e-05 0.00010203017)
(0.0034740067 7.2579e-05 7.7073287e-05)
(0.0030302461 5.2876127e-05 5.6738328e-05)
(0.0026757323 3.8068151e-05 4.1216511e-05)
(0.0023947254 2.7637704e-05 3.003714e-05)
(0.0021713898 2.0689033e-05 2.2336508e-05)
(0.0019919695 1.6236161e-05 1.7152702e-05)
(0.0018455015 1.3416236e-05 1.3643172e-05)
(0.0017237326 1.158249e-05 1.1179123e-05)
(0.0016206928 1.0304892e-05 9.3455816e-06)
(0.0015321593 9.3257903e-06 7.8957159e-06)
(0.0014551546 8.5052964e-06 6.695311e-06)
(0.0013875459 7.7746336e-06 5.6760577e-06)
(0.0013277612 7.1034281e-06 4.8034863e-06)
(0.001274601 6.4798493e-06 4.0581569e-06)
(0.0012271179 5.8999459e-06 3.4261576e-06)
(0.0011845424 5.3625307e-06 2.8950714e-06)
(0.001146235 4.8670211e-06 2.4526301e-06)
(0.0011116558 4.4125989e-06 2.0869765e-06)
(0.0010803434 3.998013e-06 1.7867453e-06)
(0.0010519002 3.62146e-06 1.541613e-06)
(0.0010259819 3.280594e-06 1.3421852e-06)
(0.001002289 2.9733954e-06 1.1797319e-06)
(0.00098056199 2.6979489e-06 1.0463197e-06)
(0.00096057571 2.4519204e-06 9.3658902e-07)
(0.00094213242 2.2325665e-06 8.4693364e-07)
(0.00092505792 2.0373869e-06 7.7316634e-07)
(0.00090920047 1.864089e-06 7.1184206e-07)
(0.00089442818 1.7104624e-06 6.6046745e-07)
(0.0008806259 1.5743826e-06 6.170735e-07)
(0.00086769294 1.4538614e-06 5.8005329e-07)
(0.00085554128 1.3470712e-06 5.4811491e-07)
(0.00084409387 1.25235e-06 5.2023889e-07)
(0.00083328322 1.1681985e-06 4.9562788e-07)
(0.00082305015 1.0932622e-06 4.7365321e-07)
(0.00081334267 1.0262295e-06 4.5378345e-07)
(0.00080411486 9.6585863e-07 4.3554421e-07)
(0.00079532615 9.1130989e-07 4.1865079e-07)
(0.0007869407 8.6191732e-07 4.0290728e-07)
(0.00077892675 8.1708351e-07 3.8816878e-07)
(0.00077125603 7.7627746e-07 3.7432107e-07)
(0.0007639033 7.3902647e-07 3.6127643e-07)
(0.00075684598 7.0491462e-07 3.4896422e-07)
(0.00075006374 6.7357484e-07 3.3733129e-07)
(0.00074353822 6.4469344e-07 3.263362e-07)
(0.00073725294 6.180251e-07 3.1581816e-07)
(0.00073119313 5.9334729e-07 3.0574369e-07)
(0.00072534528 5.7041939e-07 2.9621124e-07)
(0.00071969687 5.4902506e-07 2.8716744e-07)
(0.00071423653 5.2901441e-07 2.7854374e-07)
(0.00070895386 5.102736e-07 2.7031129e-07)
(0.00070383928 4.9268719e-07 2.6244822e-07)
(0.00069888397 4.7614332e-07 2.5493161e-07)
(0.00069407976 4.6054956e-07 2.4774396e-07)
(0.00068941911 4.4582072e-07 2.4086411e-07)
(0.00068489502 4.3188482e-07 2.3427625e-07)
(0.00068050098 4.1867875e-07 2.279642e-07)
(0.00067623091 4.0614641e-07 2.2191248e-07)
(0.00067207915 3.9423564e-07 2.1610525e-07)
(0.00066804042 3.828976e-07 2.1053126e-07)
(0.00066410976 3.7209405e-07 2.0517775e-07)
(0.00066028251 3.6179357e-07 2.0003252e-07)
(0.00065655429 3.5196204e-07 1.9508341e-07)
(0.00065292099 3.425696e-07 1.903189e-07)
(0.00064937872 3.3358704e-07 1.8572899e-07)
(0.00064592384 3.249878e-07 1.8130516e-07)
(0.00064255289 3.167516e-07 1.770401e-07)
(0.00063926261 3.0885593e-07 1.7292515e-07)
(0.00063604992 3.0128326e-07 1.6895085e-07)
(0.00063291192 2.9401319e-07 1.6511158e-07)
(0.00062984583 2.8703034e-07 1.6139832e-07)
(0.00062684904 2.8032088e-07 1.5780289e-07)
(0.00062391907 2.7387134e-07 1.5432043e-07)
(0.00062105358 2.6766611e-07 1.509418e-07)
(0.00061825035 2.6169491e-07 1.4766003e-07)
(0.00061550727 2.5594539e-07 1.4446923e-07)
(0.00061282235 2.5040655e-07 1.4135966e-07)
(0.00061019373 2.4506935e-07 1.3832432e-07)
(0.00060761965 2.3991982e-07 1.3535563e-07)
(0.00060509846 2.3494645e-07 1.3244841e-07)
(0.00060262863 2.3013515e-07 1.2959795e-07)
(0.00060020873 2.2547047e-07 1.2680468e-07)
(0.00059783744 2.2093223e-07 1.240754e-07)
(0.00059551348 2.1649787e-07 1.2143358e-07)
(0.00059323555 2.1214875e-07 1.1892866e-07)
(0.00059100214 2.0787152e-07 1.1666297e-07)
(0.00058881114 2.0368981e-07 1.148298e-07)
(0.00058665898 1.9973157e-07 1.1382023e-07)
(0.0005845387 1.9638389e-07 1.1440987e-07)
(0.00058243502 1.9487246e-07 1.183736e-07)
(0.00058031396 1.9977447e-07 1.3094423e-07)
(0.00057811611 2.2258472e-07 1.6397679e-07)
(0.00057566369 1.9707e-07 1.508062e-07)
(0.00056906201 7.8896313e-07 7.5322619e-07)
(0.0095316863 0.0003313754 0.00022336697)
(0.0092716504 0.00041105942 0.00027052342)
(0.0087756651 0.00040317187 0.00026060063)
(0.0081527518 0.00038218754 0.00024252081)
(0.0075302151 0.00035309575 0.00022101124)
(0.0069425889 0.00031541062 0.00019648834)
(0.006391209 0.00027309198 0.00017102969)
(0.0058791845 0.00023030694 0.00014652546)
(0.0054120202 0.00019001855 0.00012410997)
(0.0049926512 0.00015423459 0.00010436627)
(0.004620592 0.00012408347 8.7479017e-05)
(0.0042931332 9.9809403e-05 7.3327495e-05)
(0.0040063965 8.0956425e-05 6.1601503e-05)
(0.0037559538 6.6672211e-05 5.1918795e-05)
(0.0035372541 5.5985801e-05 4.3907445e-05)
(0.003345947 4.7992056e-05 3.7246645e-05)
(0.0031780884 4.194171e-05 3.1677529e-05)
(0.0030302311 3.7262445e-05 2.699792e-05)
(0.0028994324 3.3540995e-05 2.3051138e-05)
(0.0027832152 3.0490243e-05 1.9714593e-05)
(0.0026795075 2.7915734e-05 1.6890544e-05)
(0.0025865783 2.5687841e-05 1.4499384e-05)
(0.002502978 2.3720893e-05 1.2475017e-05)
(0.0024274871 2.1958431e-05 1.0761726e-05)
(0.0023590736 2.0362993e-05 9.3122321e-06)
(0.0022968589 1.8909454e-05 8.0861294e-06)
(0.0022400906 1.7580768e-05 7.0489622e-06)
(0.0021881216 1.63649e-05 6.1714978e-06)
(0.0021403932 1.5251964e-05 5.4283135e-06)
(0.0020964214 1.423385e-05 4.7973504e-06)
(0.0020557868 1.330304e-05 4.2604816e-06)
(0.0020181236 1.2451986e-05 3.8027039e-06)
(0.0019831119 1.1673908e-05 3.4109605e-06)
(0.0019504718 1.0962755e-05 3.0744201e-06)
(0.0019199589 1.0312853e-05 2.7842611e-06)
(0.0018913593 9.7188336e-06 2.5331813e-06)
(0.0018644851 9.1756454e-06 2.3150745e-06)
(0.0018391716 8.6785733e-06 2.1248313e-06)
(0.0018152735 8.2232438e-06 1.958183e-06)
(0.0017926629 7.8056208e-06 1.8115676e-06)
(0.0017712268 7.4219989e-06 1.6820117e-06)
(0.001750865 7.0689385e-06 1.5670702e-06)
(0.0017314886 6.7432685e-06 1.4647426e-06)
(0.0017130186 6.4422716e-06 1.373276e-06)
(0.0016953848 6.1635576e-06 1.2911591e-06)
(0.0016785241 5.904979e-06 1.2171199e-06)
(0.00166238 5.66461e-06 1.1500843e-06)
(0.0016469019 5.4407257e-06 1.0891493e-06)
(0.001632044 5.2317772e-06 1.0335529e-06)
(0.0016177649 5.0363842e-06 9.8265454e-07)
(0.0016040271 4.8533221e-06 9.3589444e-07)
(0.0015907965 4.681561e-06 8.9273715e-07)
(0.0015780424 4.5201563e-06 8.5278563e-07)
(0.0015657364 4.3681544e-06 8.1577034e-07)
(0.0015538526 4.2246835e-06 7.8138503e-07)
(0.0015423672 4.0890605e-06 7.49345e-07)
(0.0015312583 3.9607298e-06 7.1941197e-07)
(0.0015205058 3.839153e-06 6.9138666e-07)
(0.0015100909 3.7238113e-06 6.6509373e-07)
(0.0014999963 3.6142427e-06 6.4037938e-07)
(0.0014902061 3.5100298e-06 6.1710883e-07)
(0.0014807053 3.4107982e-06 5.9516029e-07)
(0.00147148 3.3162117e-06 5.7442798e-07)
(0.0014625175 3.225959e-06 5.5481571e-07)
(0.0014538055 3.1397563e-06 5.3623629e-07)
(0.0014453328 3.0573352e-06 5.1861394e-07)
(0.0014370889 2.9784697e-06 5.0187986e-07)
(0.0014290637 2.9029576e-06 4.8596917e-07)
(0.001421248 2.8306029e-06 4.7082424e-07)
(0.001413633 2.7612192e-06 4.563928e-07)
(0.0014062104 2.6946334e-06 4.4262763e-07)
(0.0013989723 2.6306899e-06 4.2948705e-07)
(0.0013919116 2.5692453e-06 4.1692977e-07)
(0.0013850212 2.5101631e-06 4.0492085e-07)
(0.0013782945 2.4533197e-06 3.9342514e-07)
(0.0013717253 2.3985956e-06 3.8241126e-07)
(0.0013653078 2.3458843e-06 3.7185202e-07)
(0.0013590364 2.2950844e-06 3.6171737e-07)
(0.0013529058 2.2461052e-06 3.5198426e-07)
(0.001346911 2.1988515e-06 3.4262571e-07)
(0.0013410472 2.1532426e-06 3.3362031e-07)
(0.0013353099 2.109197e-06 3.2494495e-07)
(0.001329695 2.066637e-06 3.1657824e-07)
(0.0013241983 2.0254886e-06 3.0849993e-07)
(0.001318816 1.9856733e-06 3.0068927e-07)
(0.0013135446 1.9471137e-06 2.9313059e-07)
(0.0013083808 1.9097262e-06 2.8580532e-07)
(0.0013033213 1.8734244e-06 2.7870135e-07)
(0.0012983632 1.8381162e-06 2.7181553e-07)
(0.0012935038 1.8037138e-06 2.6515331e-07)
(0.0012887402 1.7701684e-06 2.5874226e-07)
(0.0012840698 1.7375317e-06 2.5265024e-07)
(0.0012794889 1.7061199e-06 2.4701381e-07)
(0.0012749925 1.6769095e-06 2.4211396e-07)
(0.001270572 1.6524667e-06 2.3851879e-07)
(0.0012662098 1.6393332e-06 2.3765967e-07)
(0.0012618709 1.6545768e-06 2.4458156e-07)
(0.001257496 1.7463706e-06 2.7712457e-07)
(0.0012529717 2.0376714e-06 2.6526403e-07)
(0.0012433358 2.9514806e-06 1.3525338e-06)
(0.0095221617 0.00021179965 0.00022180582)
(0.009269783 0.00029872516 0.00026628967)
(0.0088657772 0.00031669844 0.00025526743)
(0.0083755729 0.000317438 0.00023864265)
(0.0078888426 0.00030841043 0.00021987851)
(0.0074276349 0.00028848207 0.00019850458)
(0.006988258 0.00026048391 0.00017617916)
(0.0065698164 0.00022855168 0.00015444521)
(0.0061756011 0.00019596771 0.00013413534)
(0.0058087146 0.00016504408 0.00011567593)
(0.0054706295 0.00013728621 9.9270839e-05)
(0.0051615551 0.00011345265 8.4947831e-05)
(0.0048808654 9.3684508e-05 7.2600737e-05)
(0.0046272998 7.7712988e-05 6.2044901e-05)
(0.0043991196 6.5057025e-05 5.3064543e-05)
(0.0041942886 5.5163888e-05 4.544363e-05)
(0.0040106431 4.7493347e-05 3.8982753e-05)
(0.0038460219 4.1561375e-05 3.3506381e-05)
(0.0036983537 3.6958193e-05 2.8864075e-05)
(0.0035657105 3.3351174e-05 2.4928487e-05)
(0.0034463343 3.0479502e-05 2.1592135e-05)
(0.003338646 2.8144768e-05 1.8764099e-05)
(0.003241243 2.6200155e-05 1.6367139e-05)
(0.0031528887 2.4539752e-05 1.4335368e-05)
(0.0030724986 2.3088867e-05 1.2612488e-05)
(0.0029991252 2.1796113e-05 1.1150133e-05)
(0.0029319421 2.0626904e-05 9.9064815e-06)
(0.0028702292 1.9558163e-05 8.8458158e-06)
(0.0028133589 1.8574039e-05 7.9385383e-06)
(0.0027607855 1.7663623e-05 7.1598234e-06)
(0.0027120345 1.6818833e-05 6.4890359e-06)
(0.0026666927 1.6033066e-05 5.9090217e-06)
(0.0026243991 1.5301094e-05 5.4052726e-06)
(0.0025848382 1.4618818e-05 4.965652e-06)
(0.0025477347 1.3982712e-05 4.5801149e-06)
(0.0025128472 1.3389543e-05 4.2403285e-06)
(0.002479964 1.2836282e-05 3.9393563e-06)
(0.0024488994 1.2320059e-05 3.6714264e-06)
(0.0024194896 1.1838145e-05 3.4317267e-06)
(0.00239159 1.1387941e-05 3.2162514e-06)
(0.0023650729 1.0966987e-05 3.0216595e-06)
(0.0023398248 1.0573001e-05 2.8451728e-06)
(0.0023157449 1.0203876e-05 2.6844741e-06)
(0.0022927433 9.8575809e-06 2.5375949e-06)
(0.0022707398 9.5322162e-06 2.4028641e-06)
(0.002249662 9.2260293e-06 2.2788664e-06)
(0.0022294453 8.9374186e-06 2.1643998e-06)
(0.0022100312 8.6649292e-06 2.0584374e-06)
(0.0021913666 8.4072377e-06 1.9601012e-06)
(0.0021734038 8.1631542e-06 1.8686318e-06)
(0.0021560989 7.9316215e-06 1.7833665e-06)
(0.0021394122 7.7117231e-06 1.7037078e-06)
(0.0021233074 7.5026024e-06 1.6291513e-06)
(0.0021077512 7.303381e-06 1.5592834e-06)
(0.0020927129 7.1131891e-06 1.4937206e-06)
(0.0020781645 6.9314163e-06 1.4321052e-06)
(0.0020640799 6.7576071e-06 1.3741137e-06)
(0.0020504351 6.5912625e-06 1.319462e-06)
(0.0020372075 6.4318794e-06 1.2678946e-06)
(0.0020243766 6.2790057e-06 1.2191865e-06)
(0.0020119231 6.132242e-06 1.1731324e-06)
(0.001999829 5.991221e-06 1.1295438e-06)
(0.0019880776 5.8556118e-06 1.0882502e-06)
(0.0019766531 5.725104e-06 1.0490957e-06)
(0.0019655411 5.5994089e-06 1.0119378e-06)
(0.0019547276 5.4782444e-06 9.7664664e-07)
(0.0019441999 5.3613904e-06 9.431026e-07)
(0.0019339458 5.2486486e-06 9.1118999e-07)
(0.0019239539 5.1398203e-06 8.8080773e-07)
(0.0019142135 5.0347042e-06 8.5185921e-07)
(0.0019047144 4.9331181e-06 8.2425893e-07)
(0.001895447 4.8348993e-06 7.9792448e-07)
(0.0018864023 4.7398901e-06 7.7278022e-07)
(0.0018775718 4.6479452e-06 7.4875609e-07)
(0.0018689473 4.5589246e-06 7.2578855e-07)
(0.0018605211 4.4727009e-06 7.038135e-07)
(0.0018522861 4.3891545e-06 6.8277699e-07)
(0.0018442353 4.3081685e-06 6.6262559e-07)
(0.0018363621 4.2296387e-06 6.4330763e-07)
(0.0018286604 4.1534579e-06 6.2477649e-07)
(0.0018211241 4.0795295e-06 6.0698894e-07)
(0.0018137478 4.0077547e-06 5.8990029e-07)
(0.0018065261 3.9380377e-06 5.734725e-07)
(0.001799454 3.8702807e-06 5.5766683e-07)
(0.0017925266 3.8043816e-06 5.4244703e-07)
(0.0017857396 3.7402367e-06 5.27778e-07)
(0.0017790885 3.6777266e-06 5.1362961e-07)
(0.0017725695 3.6167262e-06 4.9996971e-07)
(0.0017661787 3.5571088e-06 4.8677484e-07)
(0.0017599128 3.4987616e-06 4.7402473e-07)
(0.0017537682 3.4416526e-06 4.6171021e-07)
(0.0017477416 3.385963e-06 4.4983553e-07)
(0.0017418294 3.3323809e-06 4.3844246e-07)
(0.0017360272 3.2827915e-06 4.2764662e-07)
(0.0017303281 3.2417769e-06 4.1776874e-07)
(0.0017247202 3.2200416e-06 4.0999145e-07)
(0.001719183 3.2421561e-06 4.0985016e-07)
(0.001713691 3.3643426e-06 4.4114376e-07)
(0.0017081999 3.7072187e-06 4.7353449e-07)
(0.0016974804 4.4611199e-06 1.8635002e-06)
(0.0095012861 0.00013951169 0.00022248511)
(0.0092133349 0.00022408324 0.00026709763)
(0.0088018509 0.0002570094 0.00025529581)
(0.0083306071 0.00026690691 0.0002382081)
(0.0078754299 0.00026502159 0.00021939836)
(0.0074527063 0.0002529565 0.00019823245)
(0.0070564396 0.00023295893 0.00017634609)
(0.0066827538 0.00020836345 0.0001552305)
(0.006331873 0.00018203353 0.00013558338)
(0.0060047052 0.00015603739 0.00011769036)
(0.0057015056 0.00013180401 0.00010166909)
(0.0054220192 0.00011020725 8.7524314e-05)
(0.0051656909 9.1631901e-05 7.5171986e-05)
(0.0049316845 7.6091187e-05 6.4472618e-05)
(0.0047188814 6.3363143e-05 5.526115e-05)
(0.0045259349 5.3104941e-05 4.736682e-05)
(0.0043513547 4.4932758e-05 4.0624899e-05)
(0.0041935865 3.847136e-05 3.4883032e-05)
(0.0040510752 3.3381245e-05 3.0003995e-05)
(0.0039223115 2.9370509e-05 2.5866182e-05)
(0.0038058643 2.6197263e-05 2.2362867e-05)
(0.0037004012 2.3666732e-05 1.9400962e-05)
(0.0036047 2.1625758e-05 1.6899611e-05)
(0.0035176529 1.9956326e-05 1.4788823e-05)
(0.0034382652 1.8569048e-05 1.3008105e-05)
(0.0033656513 1.7397362e-05 1.1504744e-05)
(0.0032990266 1.6392003e-05 1.0233524e-05)
(0.0032376995 1.551624e-05 9.1565343e-06)
(0.0031810636 1.4743888e-05 8.2421116e-06)
(0.0031285885 1.4056152e-05 7.4635753e-06)
(0.0030798115 1.3438895e-05 6.7985208e-06)
(0.0030343294 1.2881151e-05 6.2282225e-06)
(0.0029917905 1.2374494e-05 5.7369826e-06)
(0.0029518882 1.1912419e-05 5.3116665e-06)
(0.0029143553 1.1489691e-05 4.9413545e-06)
(0.0028789586 1.1101928e-05 4.6170018e-06)
(0.0028454946 1.074538e-05 4.3311234e-06)
(0.0028137847 1.0416775e-05 4.0775293e-06)
(0.0027836727 1.0113218e-05 3.8511083e-06)
(0.0027550209 9.8321231e-06 3.6476461e-06)
(0.0027277081 9.5711602e-06 3.4636641e-06)
(0.002701627 9.3282509e-06 3.2963002e-06)
(0.0026766823 9.1015166e-06 3.143191e-06)
(0.0026527895 8.8892444e-06 3.0023821e-06)
(0.0026298729 8.6898924e-06 2.8722555e-06)
(0.0026078648 8.5020895e-06 2.7514709e-06)
(0.002586704 8.3246168e-06 2.6389101e-06)
(0.0025663358 8.1563963e-06 2.5336406e-06)
(0.0025467102 7.9964771e-06 2.4348844e-06)
(0.002527782 7.8440266e-06 2.3419793e-06)
(0.0025095101 7.6983371e-06 2.2543616e-06)
(0.0024918566 7.5588102e-06 2.1715449e-06)
(0.0024747871 7.4248982e-06 2.0931117e-06)
(0.0024582699 7.2960228e-06 2.0187195e-06)
(0.0024422756 7.1714406e-06 1.9480694e-06)
(0.0024267775 7.0509288e-06 1.8808989e-06)
(0.0024117506 6.9343778e-06 1.8169521e-06)
(0.0023971715 6.8214904e-06 1.7560011e-06)
(0.0023830185 6.7119568e-06 1.6978514e-06)
(0.0023692714 6.6055383e-06 1.6423274e-06)
(0.0023559116 6.5020456e-06 1.5892719e-06)
(0.0023429214 6.4013092e-06 1.5385385e-06)
(0.0023302844 6.3031801e-06 1.4899937e-06)
(0.0023179851 6.2075231e-06 1.4435167e-06)
(0.0023060089 6.1142031e-06 1.3989937e-06)
(0.0022943424 6.0230679e-06 1.3563258e-06)
(0.0022829727 5.9340585e-06 1.3154166e-06)
(0.0022718877 5.8471298e-06 1.2761699e-06)
(0.002261076 5.7622052e-06 1.2385023e-06)
(0.0022505267 5.6791997e-06 1.2023308e-06)
(0.0022402296 5.5980436e-06 1.1675824e-06)
(0.0022301752 5.5186744e-06 1.134188e-06)
(0.0022203542 5.4410312e-06 1.1020808e-06)
(0.002210758 5.3650645e-06 1.071199e-06)
(0.0022013784 5.2907189e-06 1.0414847e-06)
(0.0021922076 5.2179488e-06 1.0128812e-06)
(0.0021832381 5.146711e-06 9.8533702e-07)
(0.0021744628 5.0769582e-06 9.5880344e-07)
(0.0021658752 5.0086502e-06 9.332296e-07)
(0.0021574688 4.9417446e-06 9.0857401e-07)
(0.0021492375 4.8761992e-06 8.8479094e-07)
(0.0021411756 4.8119671e-06 8.6183969e-07)
(0.0021332776 4.7490005e-06 8.3967881e-07)
(0.0021255383 4.687242e-06 8.182698e-07)
(0.0021179527 4.6266228e-06 7.9757731e-07)
(0.0021105161 4.5670676e-06 7.7756074e-07)
(0.0021032242 4.508481e-06 7.5818338e-07)
(0.0020960727 4.4507559e-06 7.394112e-07)
(0.0020890577 4.3937764e-06 7.2120219e-07)
(0.0020821756 4.3374555e-06 7.0352021e-07)
(0.002075423 4.2818108e-06 6.8632244e-07)
(0.0020687967 4.227133e-06 6.6956204e-07)
(0.0020622937 4.1743534e-06 6.5320365e-07)
(0.002055911 4.125814e-06 6.372611e-07)
(0.0020496453 4.086829e-06 6.2198548e-07)
(0.0020434926 4.0687769e-06 6.0874702e-07)
(0.0020374483 4.0948778e-06 6.0452203e-07)
(0.0020315149 4.2094253e-06 6.3987809e-07)
(0.0020256647 4.4797481e-06 7.1688472e-07)
(0.0020144539 4.9057774e-06 2.2695253e-06)
(0.0094902877 9.6726609e-05 0.00022289229)
(0.00917661 0.00016632333 0.00026788105)
(0.0087449457 0.00019969046 0.00025550648)
(0.0082664657 0.00021101604 0.00023762681)
(0.00781215 0.0002109939 0.0002181603)
(0.0073950862 0.0002028236 0.00019646328)
(0.0070087986 0.00018827265 0.00017418493)
(0.006648835 0.00016968865 0.0001528463)
(0.0063142174 0.00014929331 0.00013312182)
(0.0060045996 0.00012875288 0.0001152379)
(0.0057192201 0.00010923292 9.9256791e-05)
(0.0054570682 9.1490072e-05 8.514891e-05)
(0.0052170782 7.5923401e-05 7.2816212e-05)
(0.0049981259 6.2643332e-05 6.2119133e-05)
(0.0047989841 5.1561153e-05 5.2900048e-05)
(0.0046183234 4.2472279e-05 4.4997976e-05)
(0.0044547458 3.5118725e-05 3.8256897e-05)
(0.0043068267 2.9230544e-05 3.2530442e-05)
(0.0041731526 2.4550834e-05 2.7684339e-05)
(0.0040523509 2.0849111e-05 2.3597361e-05)
(0.0039431142 1.7926913e-05 2.0161344e-05)
(0.0038442168 1.56186e-05 1.7280682e-05)
(0.0037545253 1.3789364e-05 1.4871531e-05)
(0.0036730042 1.2331759e-05 1.2860862e-05)
(0.0035987172 1.116154e-05 1.1185211e-05)
(0.0035308246 1.0213365e-05 9.7889732e-06)
(0.0034685786 9.4380826e-06 8.6250717e-06)
(0.0034113173 8.7971279e-06 7.6543159e-06)
(0.0033584589 8.2627212e-06 6.8439396e-06)
(0.0033094933 7.8140825e-06 6.1664546e-06)
(0.0032639753 7.4348252e-06 5.5988443e-06)
(0.0032215172 7.1121301e-06 5.121927e-06)
(0.0031817817 6.8360959e-06 4.7197272e-06)
(0.0031444758 6.5990199e-06 4.3789729e-06)
(0.0031093448 6.39478e-06 4.0886811e-06)
(0.0030761678 6.2184048e-06 3.8397978e-06)
(0.0030447526 6.0657962e-06 3.6248795e-06)
(0.003014932 5.9335267e-06 3.4378172e-06)
(0.0029865602 5.8186965e-06 3.273619e-06)
(0.0029595097 5.7188203e-06 3.1282044e-06)
(0.002933669 5.6317488e-06 2.9982612e-06)
(0.0029089401 5.5556267e-06 2.8810975e-06)
(0.0028852364 5.488824e-06 2.7745336e-06)
(0.0028624815 5.4299144e-06 2.67681e-06)
(0.0028406075 5.3776428e-06 2.5865039e-06)
(0.0028195538 5.3309237e-06 2.5024727e-06)
(0.0027992664 5.2888084e-06 2.4237897e-06)
(0.0027796963 5.250482e-06 2.3497104e-06)
(0.0027607998 5.2152423e-06 2.2796377e-06)
(0.002742537 5.1824971e-06 2.2130848e-06)
(0.0027248717 5.1517654e-06 2.1496546e-06)
(0.0027077708 5.1226685e-06 2.0890231e-06)
(0.0026912041 5.0948941e-06 2.0309206e-06)
(0.0026751435 5.0680873e-06 1.9751367e-06)
(0.0026595636 5.0410667e-06 1.9215392e-06)
(0.0026444411 5.0142604e-06 1.8699675e-06)
(0.002629754 4.9880184e-06 1.8202522e-06)
(0.0026154815 4.9620726e-06 1.772279e-06)
(0.0026016045 4.9361414e-06 1.7259603e-06)
(0.0025881054 4.9100856e-06 1.6812139e-06)
(0.0025749674 4.8838322e-06 1.6379657e-06)
(0.002562175 4.8573386e-06 1.5961464e-06)
(0.0025497136 4.8305797e-06 1.5556928e-06)
(0.0025375693 4.803537e-06 1.5165487e-06)
(0.0025257292 4.7761739e-06 1.4786611e-06)
(0.002514181 4.7483827e-06 1.4419858e-06)
(0.0025029134 4.7202755e-06 1.4064835e-06)
(0.0024919154 4.6919148e-06 1.3721024e-06)
(0.0024811765 4.6632905e-06 1.3387971e-06)
(0.002470687 4.6344029e-06 1.3065285e-06)
(0.0024604377 4.6052703e-06 1.2752601e-06)
(0.0024504197 4.5759112e-06 1.2449543e-06)
(0.0024406247 4.5463475e-06 1.215576e-06)
(0.0024310448 4.516603e-06 1.1870932e-06)
(0.0024216723 4.4866971e-06 1.1594728e-06)
(0.0024125001 4.456652e-06 1.1326842e-06)
(0.0024035213 4.4264906e-06 1.1066969e-06)
(0.0023947295 4.39623e-06 1.0814829e-06)
(0.0023861184 4.3658903e-06 1.0570128e-06)
(0.0023776821 4.3354877e-06 1.0332599e-06)
(0.0023694149 4.3050347e-06 1.0101961e-06)
(0.0023613115 4.2745356e-06 9.8779561e-07)
(0.0023533667 4.2439945e-06 9.6603063e-07)
(0.0023455757 4.2133982e-06 9.4487328e-07)
(0.0023379338 4.1827227e-06 9.2429892e-07)
(0.0023304365 4.1519268e-06 9.0427575e-07)
(0.0023230798 4.1209523e-06 8.8477261e-07)
(0.0023158598 4.0897262e-06 8.657524e-07)
(0.0023087726 4.0581576e-06 8.4717274e-07)
(0.002301815 4.0261916e-06 8.2898093e-07)
(0.0022949838 3.9938766e-06 8.1110752e-07)
(0.0022882766 3.9615301e-06 7.934644e-07)
(0.002281691 3.9300782e-06 7.7594449e-07)
(0.0022752261 3.9016907e-06 7.5847818e-07)
(0.002268882 3.8809402e-06 7.4124655e-07)
(0.0022626608 3.8766468e-06 7.2572665e-07)
(0.0022565686 3.9043051e-06 7.1957944e-07)
(0.0022506189 3.9866556e-06 7.5579972e-07)
(0.0022447715 4.1391013e-06 8.4931728e-07)
(0.002233564 4.2832265e-06 2.4122107e-06)
(0.0094843561 6.6886586e-05 0.00022303624)
(0.0091549219 0.00011904886 0.00026838771)
(0.0087072816 0.00014772497 0.00025588053)
(0.0082191888 0.00015892952 0.00023765677)
(0.0077602858 0.00016026049 0.00021787143)
(0.0073412804 0.00015505102 0.00019586613)
(0.0069552494 0.00014481701 0.00017327438)
(0.0065978366 0.00013121474 0.00015165024)
(0.0062677954 0.00011592881 0.00013169211)
(0.0059642872 0.00010028521 0.0001136244)
(0.0056860598 8.5214431e-05 9.7497523e-05)
(0.0054316726 7.1330408e-05 8.3272195e-05)
(0.0051997008 5.8984299e-05 7.0844883e-05)
(0.0049887459 4.8311754e-05 6.0073373e-05)
(0.0047973943 3.9291584e-05 5.079889e-05)
(0.0046242055 3.1804356e-05 4.2859901e-05)
(0.0044677269 2.5679086e-05 3.6099807e-05)
(0.0043265179 2.0725785e-05 3.037129e-05)
(0.0041991724 1.6756344e-05 2.5538701e-05)
(0.004084339 1.3596837e-05 2.1479082e-05)
(0.0039807371 1.1093752e-05 1.8082323e-05)
(0.0038871692 9.1161637e-06 1.5250791e-05)
(0.0038025288 7.5553795e-06 1.2898648e-05)
(0.003725804 6.3231348e-06 1.0950986e-05)
(0.0036560786 5.3488196e-06 9.3426778e-06)
(0.0035925304 4.5751805e-06 8.016613e-06)
(0.0035344253 3.9621001e-06 6.9239485e-06)
(0.0034811131 3.4726278e-06 6.0250729e-06)
(0.0034320221 3.0815208e-06 5.2862635e-06)
(0.0033866501 2.770276e-06 4.6792103e-06)
(0.0033445586 2.5236725e-06 4.1805214e-06)
(0.0033053662 2.3295853e-06 3.7707535e-06)
(0.0032687419 2.1784967e-06 3.4337457e-06)
(0.0032343982 2.0629044e-06 3.1561114e-06)
(0.0032020863 1.9768083e-06 2.9267964e-06)
(0.0031715907 1.9153158e-06 2.7367026e-06)
(0.0031427248 1.8743785e-06 2.5783563e-06)
(0.0031153267 1.8506027e-06 2.4456295e-06)
(0.0030892563 1.8411241e-06 2.3335225e-06)
(0.0030643915 1.8434985e-06 2.2379668e-06)
(0.003040626 1.8556441e-06 2.1556631e-06)
(0.0030178671 1.8757806e-06 2.0839518e-06)
(0.0029960335 1.902381e-06 2.0206943e-06)
(0.0029750538 1.9341335e-06 1.964182e-06)
(0.0029548649 1.9699134e-06 1.913053e-06)
(0.0029354109 2.0087629e-06 1.8662272e-06)
(0.0029166424 2.0498571e-06 1.8228521e-06)
(0.0028985148 2.0925094e-06 1.7822568e-06)
(0.0028809886 2.1361379e-06 1.7439149e-06)
(0.0028640277 2.1802697e-06 1.70741e-06)
(0.0028476 2.2245499e-06 1.6724144e-06)
(0.0028316758 2.2687606e-06 1.6386558e-06)
(0.0028162284 2.3128928e-06 1.6058716e-06)
(0.0028012324 2.35708e-06 1.573823e-06)
(0.0027866658 2.3978716e-06 1.5431886e-06)
(0.0027725089 2.4362362e-06 1.5136872e-06)
(0.0027587418 2.4734408e-06 1.4848885e-06)
(0.002745346 2.5095345e-06 1.4567013e-06)
(0.002732305 2.5443505e-06 1.4291163e-06)
(0.0027196032 2.5777722e-06 1.402111e-06)
(0.0027072261 2.6097233e-06 1.3756643e-06)
(0.0026951602 2.640164e-06 1.349756e-06)
(0.0026833928 2.6690874e-06 1.3243754e-06)
(0.0026719116 2.6965027e-06 1.2995091e-06)
(0.0026607054 2.7223714e-06 1.2751523e-06)
(0.0026497635 2.7463547e-06 1.251313e-06)
(0.002639076 2.7689082e-06 1.2279781e-06)
(0.0026286333 2.7901466e-06 1.2051293e-06)
(0.0026184262 2.8099937e-06 1.1827613e-06)
(0.0026084461 2.8284334e-06 1.16087e-06)
(0.0025986849 2.845495e-06 1.1394491e-06)
(0.0025891348 2.8612191e-06 1.1184909e-06)
(0.0025797885 2.8756496e-06 1.0979862e-06)
(0.002570639 2.8888318e-06 1.077929e-06)
(0.0025616795 2.9008076e-06 1.0583098e-06)
(0.0025529038 2.9116209e-06 1.0391189e-06)
(0.0025443058 2.9213154e-06 1.0203493e-06)
(0.0025358796 2.9299312e-06 1.0019898e-06)
(0.0025276198 2.9375076e-06 9.8403243e-07)
(0.002519521 2.94408e-06 9.6646528e-07)
(0.0025115783 2.9496818e-06 9.4927835e-07)
(0.0025037869 2.9543378e-06 9.3246164e-07)
(0.0024961421 2.9580687e-06 9.1599956e-07)
(0.0024886396 2.9608816e-06 8.9987983e-07)
(0.0024812752 2.9627743e-06 8.8408422e-07)
(0.002474045 2.9637229e-06 8.6859378e-07)
(0.0024669452 2.9636867e-06 8.5338231e-07)
(0.0024599723 2.962613e-06 8.3841472e-07)
(0.0024531231 2.9604302e-06 8.2364369e-07)
(0.0024463945 2.9570965e-06 8.0900311e-07)
(0.0024397839 2.9526515e-06 7.9439905e-07)
(0.0024332895 2.9473515e-06 7.7969438e-07)
(0.0024269099 2.9419135e-06 7.6470909e-07)
(0.0024206457 2.9379223e-06 7.4925992e-07)
(0.0024144993 2.9384198e-06 7.3336521e-07)
(0.0024084767 2.9484966e-06 7.1826534e-07)
(0.0024025877 2.9751259e-06 7.1113284e-07)
(0.0023968461 3.0234621e-06 7.4331307e-07)
(0.0023911946 3.0808323e-06 8.3046648e-07)
(0.0023803644 3.0574261e-06 2.2999433e-06)
(0.0094810492 4.4090136e-05 0.00022308885)
(0.0091422796 7.9975485e-05 0.00026874495)
(0.0086839084 0.00010160921 0.00025628771)
(0.0081880903 0.00011101591 0.00023793456)
(0.0077246858 0.00011275118 0.00021798622)
(0.0073029895 0.00010953687 0.00019578738)
(0.0069155191 0.00010266029 0.00017296032)
(0.0065579578 9.3267236e-05 0.0001510852)
(0.006229001 8.2539593e-05 0.00013089045)
(0.005927585 7.1446833e-05 0.00011261412)
(0.0056522063 6.0673359e-05 9.6309239e-05)
(0.0054012005 5.0670808e-05 8.1936267e-05)
(0.0051729477 4.170661e-05 6.9390832e-05)
(0.004965887 3.3898116e-05 5.8529096e-05)
(0.0047784814 2.7249953e-05 4.9189877e-05)
(0.0046092054 2.1693074e-05 4.1208772e-05)
(0.0044565535 1.7117438e-05 3.4426143e-05)
(0.0043190553 1.3395519e-05 2.8691658e-05)
(0.0041952917 1.0397812e-05 2.3866803e-05)
(0.0040839086 8.0023309e-06 1.9826011e-05)
(0.0039836292 6.0997701e-06 1.6456859e-05)
(0.0038932634 4.5956625e-06 1.3659715e-05)
(0.0038117126 3.4106736e-06 1.1347014e-05)
(0.0037379734 2.4799304e-06 9.4422917e-06)
(0.0036711359 1.7515117e-06 7.8790886e-06)
(0.0036103859 1.1749054e-06 6.6010337e-06)
(0.0035549935 7.2234181e-07 5.55612e-06)
(0.0035043108 3.7342563e-07 4.7060698e-06)
(0.0034577717 1.0569727e-07 4.0163439e-06)
(0.0034148763 -9.9089984e-08 3.4574135e-06)
(0.0033751872 -2.5333692e-07 3.0054957e-06)
(0.0033383243 -3.6640045e-07 2.6409753e-06)
(0.0033039576 -4.4577998e-07 2.3475734e-06)
(0.0032718009 -4.9748548e-07 2.1118257e-06)
(0.0032416065 -5.2634653e-07 1.9226414e-06)
(0.0032131599 -5.3631105e-07 1.770915e-06)
(0.0031862758 -5.3064119e-07 1.6492029e-06)
(0.0031607936 -5.1206416e-07 1.5514413e-06)
(0.0031365743 -4.8287227e-07 1.4727101e-06)
(0.0031134976 -4.4500792e-07 1.4090326e-06)
(0.0030914586 -4.0011067e-07 1.3572047e-06)
(0.0030703663 -3.4957827e-07 1.3146558e-06)
(0.0030501409 -2.9459506e-07 1.2793307e-06)
(0.0030307129 -2.3617076e-07 1.2495919e-06)
(0.0030120207 -1.751664e-07 1.2241415e-06)
(0.0029940105 -1.1232046e-07 1.2019529e-06)
(0.0029766343 -4.8267894e-08 1.1822238e-06)
(0.0029598495 1.6450763e-08 1.1643219e-06)
(0.0029436181 8.135576e-08 1.1477518e-06)
(0.002927906 1.460242e-07 1.1321247e-06)
(0.0029126825 2.1005883e-07 1.1171184e-06)
(0.0028979201 2.7304909e-07 1.1024398e-06)
(0.0028835935 3.3454055e-07 1.0876604e-06)
(0.0028696773 3.9432415e-07 1.0722025e-06)
(0.0028561514 4.5704884e-07 1.0590089e-06)
(0.0028429997 5.2060074e-07 1.0472562e-06)
(0.0028302035 5.8225373e-07 1.0356071e-06)
(0.0028177449 6.4163888e-07 1.0238007e-06)
(0.0028056084 6.9901895e-07 1.0118753e-06)
(0.0027937799 7.5456082e-07 9.9986881e-07)
(0.0027822461 8.0834862e-07 9.8781036e-07)
(0.0027709946 8.6046706e-07 9.7571961e-07)
(0.0027600137 9.1102493e-07 9.6360242e-07)
(0.0027492926 9.6019434e-07 9.5144719e-07)
(0.0027388207 1.008006e-06 9.392674e-07)
(0.0027285887 1.0528508e-06 9.2746571e-07)
(0.0027185878 1.0958661e-06 9.1582939e-07)
(0.0027088089 1.1374999e-06 9.0425349e-07)
(0.0026992438 1.1777667e-06 8.9275899e-07)
(0.0026898847 1.2166583e-06 8.8136597e-07)
(0.0026807244 1.2541708e-06 8.7007982e-07)
(0.0026717559 1.2903151e-06 8.5890633e-07)
(0.0026629726 1.3251085e-06 8.478528e-07)
(0.0026543682 1.358575e-06 8.3692178e-07)
(0.0026459367 1.3907413e-06 8.2612202e-07)
(0.0026376723 1.4216361e-06 8.1545303e-07)
(0.0026295698 1.4512908e-06 8.0492015e-07)
(0.0026216238 1.479734e-06 7.9452335e-07)
(0.0026138294 1.5069918e-06 7.8426364e-07)
(0.002606182 1.5330937e-06 7.741405e-07)
(0.0025986769 1.5580634e-06 7.6415045e-07)
(0.0025913099 1.5819221e-06 7.5429482e-07)
(0.0025840769 1.6046812e-06 7.4456409e-07)
(0.0025769739 1.6263487e-06 7.3495315e-07)