/*--------------------------------*- C++ -*----------------------------------*\
  =========                 |
  \\      /  F ield         | OpenFOAM: The Open Source CFD Toolbox
   \\    /   O peration     | Website:  https://openfoam.org
    \\  /    A nd           | Version:  7
     \\/     M anipulation  |
\*---------------------------------------------------------------------------*/
FoamFile
{
    version     2.0;
    format      ascii;
    class       volVectorField;
    location    "2750/water";
    object      U;
}
// * * * * * * * * * * * * * * * * * * * * * * * * * * * * * * * * * * * * * //

dimensions      [0 1 -1 0 0 0 0];

internalField   nonuniform List<vector> 
54000
(
(0.0090020934 0.00020305973 0.00020444027)
(0.0083186447 0.00023622738 0.00023904411)
(0.0073695241 0.00021363852 0.00021763527)
(0.0063566114 0.00018488016 0.00018965819)
(0.0054486673 0.00015530836 0.00016048633)
(0.0046741594 0.00012529952 0.00013052937)
(0.0040193038 9.7052612e-05 0.00010203017)
(0.0034740067 7.2578999e-05 7.7073287e-05)
(0.0030302461 5.2876126e-05 5.6738329e-05)
(0.0026757323 3.806815e-05 4.1216512e-05)
(0.0023947254 2.7637704e-05 3.003714e-05)
(0.0021713898 2.0689034e-05 2.2336509e-05)
(0.0019919695 1.6236161e-05 1.7152704e-05)
(0.0018455015 1.3416236e-05 1.3643173e-05)
(0.0017237326 1.1582489e-05 1.1179122e-05)
(0.0016206928 1.0304891e-05 9.3455811e-06)
(0.0015321593 9.3257908e-06 7.8957154e-06)
(0.0014551546 8.5052958e-06 6.6953107e-06)
(0.0013875459 7.7746333e-06 5.6760578e-06)
(0.0013277612 7.1034285e-06 4.8034861e-06)
(0.001274601 6.4798496e-06 4.0581563e-06)
(0.0012271179 5.8999452e-06 3.4261587e-06)
(0.0011845424 5.3625312e-06 2.8950716e-06)
(0.001146235 4.8670218e-06 2.4526296e-06)
(0.0011116558 4.4125993e-06 2.0869761e-06)
(0.0010803434 3.9980135e-06 1.7867444e-06)
(0.0010519002 3.6214591e-06 1.5416118e-06)
(0.0010259819 3.2805937e-06 1.3421853e-06)
(0.001002289 2.9733945e-06 1.1797306e-06)
(0.00098056199 2.6979494e-06 1.0463198e-06)
(0.00096057572 2.4519208e-06 9.3658944e-07)
(0.00094213242 2.2325669e-06 8.4693284e-07)
(0.00092505792 2.0373874e-06 7.7316536e-07)
(0.00090920047 1.8640891e-06 7.1184243e-07)
(0.00089442818 1.7104628e-06 6.6046672e-07)
(0.0008806259 1.5743832e-06 6.1707331e-07)
(0.00086769295 1.4538614e-06 5.8005325e-07)
(0.00085554128 1.3470715e-06 5.481149e-07)
(0.00084409387 1.2523501e-06 5.2023859e-07)
(0.00083328322 1.1681993e-06 4.9562814e-07)
(0.00082305015 1.0932616e-06 4.7365301e-07)
(0.00081334267 1.02623e-06 4.5378311e-07)
(0.00080411486 9.658588e-07 4.3554457e-07)
(0.00079532615 9.1130986e-07 4.1865028e-07)
(0.0007869407 8.6191736e-07 4.0290677e-07)
(0.00077892675 8.1708341e-07 3.8816789e-07)
(0.00077125603 7.7627647e-07 3.7432112e-07)
(0.0007639033 7.3902619e-07 3.6127567e-07)
(0.00075684598 7.0491537e-07 3.4896387e-07)
(0.00075006373 6.7357482e-07 3.3733165e-07)
(0.00074353821 6.4469402e-07 3.2633702e-07)
(0.00073725294 6.1802524e-07 3.1581815e-07)
(0.00073119314 5.9334759e-07 3.0574338e-07)
(0.00072534528 5.7041884e-07 2.9621088e-07)
(0.00071969687 5.4902481e-07 2.8716573e-07)
(0.00071423652 5.2901471e-07 2.7854304e-07)
(0.00070895385 5.102731e-07 2.7031143e-07)
(0.00070383928 4.9268838e-07 2.6244809e-07)
(0.00069888397 4.761454e-07 2.5493265e-07)
(0.00069407976 4.6054999e-07 2.4774309e-07)
(0.00068941911 4.4582035e-07 2.4086382e-07)
(0.00068489502 4.318846e-07 2.3427597e-07)
(0.00068050098 4.1867905e-07 2.2796423e-07)
(0.00067623091 4.0614681e-07 2.2191267e-07)
(0.00067207915 3.9423449e-07 2.1610544e-07)
(0.00066804042 3.828972e-07 2.1053041e-07)
(0.00066410976 3.7209544e-07 2.0517792e-07)
(0.00066028251 3.6179486e-07 2.0003197e-07)
(0.00065655429 3.5196276e-07 1.9508209e-07)
(0.00065292099 3.4256871e-07 1.9031794e-07)
(0.00064937872 3.3358602e-07 1.8572873e-07)
(0.00064592384 3.249878e-07 1.8130611e-07)
(0.00064255289 3.167524e-07 1.7704076e-07)
(0.00063926261 3.0885595e-07 1.729249e-07)
(0.00063604992 3.0128284e-07 1.6894995e-07)
(0.00063291192 2.9401357e-07 1.6511015e-07)
(0.00062984583 2.8703055e-07 1.613969e-07)
(0.00062684904 2.8032132e-07 1.5780382e-07)
(0.00062391907 2.7387075e-07 1.5432085e-07)
(0.00062105358 2.6766548e-07 1.5094235e-07)
(0.00061825035 2.6169489e-07 1.476613e-07)
(0.00061550726 2.5594496e-07 1.4446896e-07)
(0.00061282235 2.5040612e-07 1.4135986e-07)
(0.00061019373 2.4506842e-07 1.3832476e-07)
(0.00060761965 2.3991921e-07 1.3535636e-07)
(0.00060509846 2.3494585e-07 1.3244947e-07)
(0.00060262863 2.3013541e-07 1.2959858e-07)
(0.00060020873 2.2546962e-07 1.268048e-07)
(0.00059783744 2.2093133e-07 1.240749e-07)
(0.00059551348 2.1649901e-07 1.2143302e-07)
(0.00059323555 2.1214916e-07 1.1892914e-07)
(0.00059100214 2.0787269e-07 1.1666217e-07)
(0.00058881114 2.0369021e-07 1.1482981e-07)
(0.00058665898 1.9973137e-07 1.1381976e-07)
(0.0005845387 1.9638444e-07 1.1441054e-07)
(0.00058243501 1.9487374e-07 1.1837392e-07)
(0.00058031396 1.9977536e-07 1.3094395e-07)
(0.0005781161 2.2258503e-07 1.6397642e-07)
(0.00057566369 1.9706928e-07 1.5080654e-07)
(0.00056906201 7.8896462e-07 7.5322641e-07)
(0.0095316863 0.0003313754 0.00022336697)
(0.0092716504 0.00041105943 0.00027052342)
(0.0087756651 0.00040317187 0.00026060063)
(0.0081527518 0.00038218754 0.00024252081)
(0.0075302151 0.00035309575 0.00022101124)
(0.0069425889 0.00031541062 0.00019648834)
(0.006391209 0.00027309198 0.00017102969)
(0.0058791845 0.00023030694 0.00014652546)
(0.0054120202 0.00019001855 0.00012410997)
(0.0049926512 0.00015423459 0.00010436627)
(0.004620592 0.00012408347 8.7479017e-05)
(0.0042931332 9.9809403e-05 7.3327496e-05)
(0.0040063965 8.0956425e-05 6.1601504e-05)
(0.0037559538 6.667221e-05 5.1918794e-05)
(0.0035372541 5.59858e-05 4.3907445e-05)
(0.003345947 4.7992056e-05 3.7246645e-05)
(0.0031780884 4.1941711e-05 3.1677529e-05)
(0.0030302311 3.7262446e-05 2.6997921e-05)
(0.0028994324 3.3540996e-05 2.3051138e-05)
(0.0027832152 3.0490244e-05 1.9714593e-05)
(0.0026795075 2.7915735e-05 1.6890543e-05)
(0.0025865783 2.5687841e-05 1.4499383e-05)
(0.002502978 2.3720894e-05 1.2475016e-05)
(0.0024274871 2.1958431e-05 1.0761725e-05)
(0.0023590736 2.0362994e-05 9.3122323e-06)
(0.0022968589 1.8909455e-05 8.0861288e-06)
(0.0022400906 1.7580767e-05 7.0489628e-06)
(0.0021881216 1.6364899e-05 6.1714977e-06)
(0.0021403932 1.5251962e-05 5.4283138e-06)
(0.0020964214 1.4233849e-05 4.7973492e-06)
(0.0020557868 1.330304e-05 4.2604817e-06)
(0.0020181236 1.2451986e-05 3.8027027e-06)
(0.0019831119 1.1673909e-05 3.4109593e-06)
(0.0019504718 1.0962755e-05 3.0744202e-06)
(0.0019199589 1.0312854e-05 2.7842591e-06)
(0.0018913593 9.7188341e-06 2.5331805e-06)
(0.0018644851 9.1756449e-06 2.3150741e-06)
(0.0018391716 8.6785719e-06 2.124831e-06)
(0.0018152735 8.2232431e-06 1.9581832e-06)
(0.0017926629 7.8056218e-06 1.8115684e-06)
(0.0017712268 7.4219979e-06 1.6820123e-06)
(0.001750865 7.0689373e-06 1.5670705e-06)
(0.0017314886 6.7432679e-06 1.4647426e-06)
(0.0017130186 6.442272e-06 1.3732756e-06)
(0.0016953848 6.1635578e-06 1.2911596e-06)
(0.0016785241 5.9049789e-06 1.21712e-06)
(0.00166238 5.6646099e-06 1.1500834e-06)
(0.0016469019 5.4407246e-06 1.0891487e-06)
(0.001632044 5.2317774e-06 1.0335534e-06)
(0.0016177648 5.0363829e-06 9.8265367e-07)
(0.0016040271 4.8533226e-06 9.3589479e-07)
(0.0015907965 4.6815616e-06 8.9273742e-07)
(0.0015780424 4.5201575e-06 8.5278634e-07)
(0.0015657364 4.3681537e-06 8.1577008e-07)
(0.0015538526 4.2246832e-06 7.8138464e-07)
(0.0015423672 4.0890609e-06 7.4934467e-07)
(0.0015312583 3.9607287e-06 7.1941249e-07)
(0.0015205058 3.8391528e-06 6.9138747e-07)
(0.0015100909 3.7238134e-06 6.6509416e-07)
(0.0014999963 3.6142434e-06 6.4037951e-07)
(0.0014902061 3.5100291e-06 6.1710831e-07)
(0.0014807053 3.4107975e-06 5.9516053e-07)
(0.00147148 3.3162109e-06 5.7442779e-07)
(0.0014625175 3.2259596e-06 5.5481489e-07)
(0.0014538055 3.139754e-06 5.3623486e-07)
(0.0014453328 3.0573346e-06 5.1861366e-07)
(0.0014370889 2.9784711e-06 5.018791e-07)
(0.0014290637 2.9029589e-06 4.8596809e-07)
(0.001421248 2.8306026e-06 4.7082361e-07)
(0.001413633 2.7612171e-06 4.5639297e-07)
(0.0014062103 2.6946328e-06 4.4262964e-07)
(0.0013989723 2.6306902e-06 4.2948762e-07)
(0.0013919116 2.5692461e-06 4.1693082e-07)
(0.0013850211 2.5101629e-06 4.0492071e-07)
(0.0013782945 2.4533176e-06 3.9342504e-07)
(0.0013717253 2.3985948e-06 3.8241099e-07)
(0.0013653078 2.3458839e-06 3.7185074e-07)
(0.0013590364 2.2950849e-06 3.6171693e-07)
(0.0013529058 2.246104e-06 3.5198407e-07)
(0.001346911 2.1988508e-06 3.4262635e-07)
(0.0013410472 2.1532421e-06 3.3362069e-07)
(0.0013353099 2.1091962e-06 3.2494585e-07)
(0.001329695 2.066636e-06 3.1657967e-07)
(0.0013241983 2.025487e-06 3.0850056e-07)
(0.001318816 1.9856732e-06 3.0068997e-07)
(0.0013135446 1.9471146e-06 2.9313088e-07)
(0.0013083808 1.9097273e-06 2.8580603e-07)
(0.0013033213 1.873424e-06 2.7870302e-07)
(0.0012983632 1.8381142e-06 2.7181575e-07)
(0.0012935038 1.803714e-06 2.6515342e-07)
(0.0012887402 1.7701695e-06 2.5874285e-07)
(0.0012840698 1.7375345e-06 2.526505e-07)
(0.0012794889 1.7061214e-06 2.4701342e-07)
(0.0012749925 1.6769098e-06 2.4211279e-07)
(0.001270572 1.6524686e-06 2.3851833e-07)
(0.0012662098 1.6393341e-06 2.3765957e-07)
(0.0012618709 1.6545776e-06 2.4458262e-07)
(0.0012574959 1.7463719e-06 2.7712504e-07)
(0.0012529717 2.0376712e-06 2.6526448e-07)
(0.0012433358 2.951483e-06 1.3525332e-06)
(0.0095221617 0.00021179965 0.00022180582)
(0.009269783 0.00029872516 0.00026628967)
(0.0088657772 0.00031669844 0.00025526743)
(0.0083755729 0.000317438 0.00023864265)
(0.0078888426 0.00030841043 0.00021987851)
(0.0074276349 0.00028848207 0.00019850458)
(0.006988258 0.00026048391 0.00017617916)
(0.0065698164 0.00022855168 0.00015444521)
(0.0061756011 0.00019596771 0.00013413534)
(0.0058087146 0.00016504408 0.00011567593)
(0.0054706295 0.00013728621 9.9270839e-05)
(0.0051615551 0.00011345265 8.4947831e-05)
(0.0048808654 9.3684508e-05 7.2600737e-05)
(0.0046272998 7.7712988e-05 6.2044901e-05)
(0.0043991196 6.5057025e-05 5.3064542e-05)
(0.0041942886 5.5163888e-05 4.544363e-05)
(0.0040106431 4.7493348e-05 3.8982753e-05)
(0.0038460219 4.1561378e-05 3.3506381e-05)
(0.0036983537 3.6958195e-05 2.8864075e-05)
(0.0035657105 3.3351176e-05 2.4928487e-05)
(0.0034463343 3.0479503e-05 2.1592135e-05)
(0.003338646 2.8144768e-05 1.8764099e-05)
(0.003241243 2.6200155e-05 1.6367139e-05)
(0.0031528887 2.4539753e-05 1.433537e-05)
(0.0030724986 2.3088867e-05 1.2612489e-05)
(0.0029991252 2.1796113e-05 1.1150134e-05)
(0.0029319421 2.0626905e-05 9.9064815e-06)
(0.0028702292 1.9558164e-05 8.8458153e-06)
(0.0028133589 1.8574038e-05 7.9385372e-06)
(0.0027607855 1.7663622e-05 7.159823e-06)
(0.0027120345 1.6818833e-05 6.4890348e-06)
(0.0026666927 1.6033066e-05 5.9090202e-06)
(0.0026243991 1.5301095e-05 5.4052719e-06)
(0.0025848382 1.4618818e-05 4.9656519e-06)
(0.0025477347 1.3982712e-05 4.5801138e-06)
(0.0025128472 1.3389543e-05 4.2403274e-06)
(0.002479964 1.2836281e-05 3.939357e-06)
(0.0024488994 1.2320058e-05 3.6714259e-06)
(0.0024194896 1.1838145e-05 3.4317263e-06)
(0.00239159 1.1387939e-05 3.2162509e-06)
(0.0023650729 1.0966985e-05 3.0216611e-06)
(0.0023398248 1.0572999e-05 2.8451737e-06)
(0.0023157449 1.0203873e-05 2.6844749e-06)
(0.0022927433 9.857581e-06 2.537595e-06)
(0.0022707398 9.5322161e-06 2.402864e-06)
(0.002249662 9.2260293e-06 2.2788662e-06)
(0.0022294453 8.9374186e-06 2.1643996e-06)
(0.0022100312 8.6649277e-06 2.0584381e-06)
(0.0021913666 8.4072361e-06 1.9601005e-06)
(0.0021734038 8.1631527e-06 1.8686312e-06)
(0.0021560989 7.9316213e-06 1.7833668e-06)
(0.0021394122 7.7117232e-06 1.7037082e-06)
(0.0021233074 7.5026033e-06 1.6291517e-06)
(0.0021077512 7.3033806e-06 1.5592838e-06)
(0.0020927129 7.1131885e-06 1.4937201e-06)
(0.0020781645 6.9314164e-06 1.4321046e-06)
(0.0020640799 6.7576062e-06 1.3741143e-06)
(0.0020504351 6.5912607e-06 1.3194619e-06)
(0.0020372075 6.4318789e-06 1.2678939e-06)
(0.0020243766 6.2790055e-06 1.2191851e-06)
(0.0020119231 6.1322406e-06 1.1731322e-06)
(0.001999829 5.9912196e-06 1.1295433e-06)
(0.0019880776 5.8556102e-06 1.0882497e-06)
(0.0019766531 5.7251048e-06 1.0490953e-06)
(0.0019655411 5.5994078e-06 1.0119376e-06)
(0.0019547276 5.4782445e-06 9.7664579e-07)
(0.0019441999 5.3613895e-06 9.4310035e-07)
(0.0019339458 5.2486487e-06 9.1118948e-07)
(0.0019239539 5.1398181e-06 8.8080703e-07)
(0.0019142135 5.0347014e-06 8.5185983e-07)
(0.0019047144 4.933119e-06 8.2426065e-07)
(0.001895447 4.8348993e-06 7.9792493e-07)
(0.0018864023 4.7398897e-06 7.7277953e-07)
(0.0018775718 4.6479442e-06 7.487554e-07)
(0.0018689473 4.5589217e-06 7.2578718e-07)
(0.0018605211 4.4726984e-06 7.038135e-07)
(0.0018522861 4.3891522e-06 6.8277676e-07)
(0.0018442353 4.308169e-06 6.6262512e-07)
(0.0018363621 4.2296382e-06 6.4330833e-07)
(0.0018286604 4.1534574e-06 6.2477744e-07)
(0.0018211241 4.0795291e-06 6.069887e-07)
(0.0018137478 4.0077535e-06 5.8990054e-07)
(0.0018065261 3.9380354e-06 5.7347246e-07)
(0.001799454 3.8702782e-06 5.5766701e-07)
(0.0017925266 3.8043818e-06 5.424473e-07)
(0.0017857396 3.7402377e-06 5.2777868e-07)
(0.0017790885 3.6777277e-06 5.1362945e-07)
(0.0017725695 3.6167272e-06 4.9997037e-07)
(0.0017661787 3.5571065e-06 4.8677474e-07)
(0.0017599128 3.4987599e-06 4.7402532e-07)
(0.0017537682 3.4416531e-06 4.6171061e-07)
(0.0017477416 3.3859641e-06 4.498354e-07)
(0.0017418294 3.332383e-06 4.384421e-07)
(0.0017360272 3.2827918e-06 4.2764568e-07)
(0.0017303281 3.2417782e-06 4.1776732e-07)
(0.0017247202 3.2200402e-06 4.0998997e-07)
(0.001719183 3.2421547e-06 4.098497e-07)
(0.001713691 3.3643441e-06 4.4114457e-07)
(0.0017081999 3.7072195e-06 4.7353408e-07)
(0.0016974804 4.4611198e-06 1.8634988e-06)
(0.0095012861 0.00013951169 0.00022248511)
(0.0092133349 0.00022408324 0.00026709763)
(0.0088018509 0.0002570094 0.00025529581)
(0.0083306071 0.00026690691 0.0002382081)
(0.0078754299 0.00026502159 0.00021939836)
(0.0074527063 0.00025295651 0.00019823245)
(0.0070564396 0.00023295893 0.00017634609)
(0.0066827538 0.00020836345 0.0001552305)
(0.006331873 0.00018203354 0.00013558338)
(0.0060047052 0.00015603739 0.00011769036)
(0.0057015056 0.00013180401 0.00010166909)
(0.0054220192 0.00011020725 8.7524315e-05)
(0.0051656909 9.1631901e-05 7.5171986e-05)
(0.0049316845 7.6091187e-05 6.4472618e-05)
(0.0047188814 6.3363143e-05 5.526115e-05)
(0.0045259349 5.3104941e-05 4.7366821e-05)
(0.0043513547 4.4932758e-05 4.0624899e-05)
(0.0041935865 3.8471361e-05 3.4883032e-05)
(0.0040510752 3.3381247e-05 3.0003995e-05)
(0.0039223115 2.9370509e-05 2.5866182e-05)
(0.0038058643 2.6197263e-05 2.2362867e-05)
(0.0037004012 2.3666731e-05 1.9400961e-05)
(0.0036047 2.1625757e-05 1.6899611e-05)
(0.0035176529 1.9956327e-05 1.4788824e-05)
(0.0034382652 1.8569048e-05 1.3008105e-05)
(0.0033656513 1.7397362e-05 1.1504744e-05)
(0.0032990266 1.6392004e-05 1.0233523e-05)
(0.0032376995 1.5516242e-05 9.156535e-06)
(0.0031810636 1.4743888e-05 8.2421113e-06)
(0.0031285885 1.4056153e-05 7.4635754e-06)
(0.0030798115 1.3438894e-05 6.7985194e-06)
(0.0030343294 1.2881152e-05 6.2282221e-06)
(0.0029917905 1.2374495e-05 5.7369822e-06)
(0.0029518882 1.1912418e-05 5.3116665e-06)
(0.0029143553 1.148969e-05 4.9413538e-06)
(0.0028789586 1.1101928e-05 4.6170007e-06)
(0.0028454946 1.074538e-05 4.3311222e-06)
(0.0028137847 1.0416774e-05 4.0775281e-06)
(0.0027836727 1.0113218e-05 3.8511083e-06)
(0.0027550209 9.8321202e-06 3.6476455e-06)
(0.0027277081 9.5711596e-06 3.4636649e-06)
(0.002701627 9.3282499e-06 3.2963014e-06)
(0.0026766823 9.1015153e-06 3.1431916e-06)
(0.0026527895 8.8892437e-06 3.0023821e-06)
(0.0026298729 8.6898918e-06 2.8722565e-06)
(0.0026078648 8.5020891e-06 2.7514708e-06)
(0.002586704 8.3246161e-06 2.6389102e-06)
(0.0025663358 8.1563955e-06 2.5336416e-06)
(0.0025467102 7.9964748e-06 2.4348845e-06)
(0.002527782 7.8440261e-06 2.3419786e-06)
(0.0025095101 7.6983369e-06 2.2543615e-06)
(0.0024918566 7.5588089e-06 2.1715447e-06)
(0.0024747871 7.4248983e-06 2.0931127e-06)
(0.0024582699 7.2960219e-06 2.01872e-06)
(0.0024422756 7.1714386e-06 1.9480693e-06)
(0.0024267775 7.0509273e-06 1.8808987e-06)
(0.0024117506 6.9343775e-06 1.8169523e-06)
(0.0023971715 6.8214895e-06 1.7560029e-06)
(0.0023830185 6.7119557e-06 1.6978524e-06)
(0.0023692714 6.6055375e-06 1.6423288e-06)
(0.0023559116 6.502044e-06 1.589272e-06)
(0.0023429214 6.4013077e-06 1.5385384e-06)
(0.0023302844 6.3031797e-06 1.4899934e-06)
(0.0023179851 6.2075251e-06 1.4435166e-06)
(0.0023060089 6.1142035e-06 1.3989947e-06)
(0.0022943424 6.0230684e-06 1.356325e-06)
(0.0022829727 5.9340572e-06 1.3154157e-06)
(0.0022718877 5.8471291e-06 1.2761703e-06)
(0.002261076 5.7622039e-06 1.2385026e-06)
(0.0022505267 5.6791984e-06 1.2023318e-06)
(0.0022402296 5.5980425e-06 1.1675833e-06)
(0.0022301752 5.5186725e-06 1.1341886e-06)
(0.0022203542 5.4410301e-06 1.1020812e-06)
(0.002210758 5.3650624e-06 1.0711996e-06)
(0.0022013784 5.2907166e-06 1.0414848e-06)
(0.0021922076 5.2179474e-06 1.0128817e-06)
(0.0021832381 5.1467094e-06 9.853381e-07)
(0.0021744628 5.0769582e-06 9.5880326e-07)
(0.0021658752 5.00865e-06 9.3323113e-07)
(0.0021574688 4.9417437e-06 9.0857434e-07)
(0.0021492375 4.876199e-06 8.8479154e-07)
(0.0021411756 4.8119656e-06 8.6183939e-07)
(0.0021332776 4.7489978e-06 8.3967923e-07)
(0.0021255383 4.6872385e-06 8.1827038e-07)
(0.0021179527 4.626621e-06 7.9757718e-07)
(0.0021105161 4.567067e-06 7.7756035e-07)
(0.0021032242 4.5084819e-06 7.5818453e-07)
(0.0020960727 4.4507557e-06 7.3941139e-07)
(0.0020890577 4.3937735e-06 7.2120313e-07)
(0.0020821756 4.3374547e-06 7.0352131e-07)
(0.002075423 4.2818106e-06 6.8632172e-07)
(0.0020687967 4.2271329e-06 6.6956194e-07)
(0.0020622937 4.1743541e-06 6.5320308e-07)
(0.002055911 4.1258141e-06 6.3726164e-07)
(0.0020496453 4.0868292e-06 6.2198401e-07)
(0.0020434926 4.068776e-06 6.0874661e-07)
(0.0020374483 4.094876e-06 6.0452202e-07)
(0.0020315149 4.2094253e-06 6.3987826e-07)
(0.0020256647 4.4797481e-06 7.1688425e-07)
(0.0020144539 4.9057761e-06 2.2695253e-06)
(0.0094902877 9.6726607e-05 0.00022289229)
(0.00917661 0.00016632333 0.00026788105)
(0.0087449456 0.00019969046 0.00025550648)
(0.0082664657 0.00021101604 0.00023762681)
(0.00781215 0.0002109939 0.0002181603)
(0.0073950862 0.0002028236 0.00019646328)
(0.0070087986 0.00018827265 0.00017418493)
(0.006648835 0.00016968865 0.0001528463)
(0.0063142174 0.00014929332 0.00013312182)
(0.0060045996 0.00012875288 0.0001152379)
(0.0057192201 0.00010923292 9.9256792e-05)
(0.0054570682 9.1490072e-05 8.5148911e-05)
(0.0052170782 7.5923401e-05 7.2816212e-05)
(0.0049981259 6.2643332e-05 6.2119134e-05)
(0.0047989841 5.1561153e-05 5.2900048e-05)
(0.0046183234 4.2472279e-05 4.4997976e-05)
(0.0044547458 3.5118726e-05 3.8256897e-05)
(0.0043068267 2.9230545e-05 3.2530442e-05)
(0.0041731526 2.4550835e-05 2.7684339e-05)
(0.0040523509 2.084911e-05 2.3597362e-05)
(0.0039431142 1.7926912e-05 2.0161345e-05)
(0.0038442168 1.56186e-05 1.7280682e-05)
(0.0037545253 1.3789364e-05 1.4871531e-05)
(0.0036730042 1.2331759e-05 1.2860862e-05)
(0.0035987172 1.1161539e-05 1.1185211e-05)
(0.0035308247 1.0213366e-05 9.788974e-06)
(0.0034685786 9.4380828e-06 8.6250716e-06)
(0.0034113173 8.7971292e-06 7.6543149e-06)
(0.0033584589 8.2627208e-06 6.8439394e-06)
(0.0033094933 7.8140823e-06 6.1664544e-06)
(0.0032639753 7.4348234e-06 5.5988445e-06)
(0.0032215172 7.1121302e-06 5.1219266e-06)
(0.0031817817 6.8360962e-06 4.7197276e-06)
(0.0031444758 6.5990206e-06 4.3789734e-06)
(0.0031093448 6.3947796e-06 4.0886806e-06)
(0.0030761678 6.2184045e-06 3.8397968e-06)
(0.0030447526 6.0657968e-06 3.6248786e-06)
(0.003014932 5.9335272e-06 3.4378179e-06)
(0.0029865602 5.8186964e-06 3.2736186e-06)
(0.0029595097 5.7188196e-06 3.1282048e-06)
(0.002933669 5.6317504e-06 2.9982614e-06)
(0.0029089401 5.5556264e-06 2.8810972e-06)
(0.0028852364 5.4888243e-06 2.7745337e-06)
(0.0028624815 5.4299136e-06 2.676811e-06)
(0.0028406075 5.3776434e-06 2.5865053e-06)
(0.0028195538 5.3309226e-06 2.5024728e-06)
(0.0027992664 5.2888085e-06 2.4237888e-06)
(0.0027796963 5.2504815e-06 2.34971e-06)
(0.0027607998 5.2152407e-06 2.2796371e-06)
(0.002742537 5.1824976e-06 2.2130839e-06)
(0.0027248717 5.1517669e-06 2.1496545e-06)
(0.0027077708 5.1226672e-06 2.0890231e-06)
(0.0026912041 5.0948938e-06 2.0309208e-06)
(0.0026751435 5.0680864e-06 1.9751366e-06)
(0.0026595636 5.0410649e-06 1.9215398e-06)
(0.0026444411 5.0142579e-06 1.8699671e-06)
(0.002629754 4.988018e-06 1.8202515e-06)
(0.0026154815 4.9620713e-06 1.7722785e-06)
(0.0026016045 4.9361405e-06 1.7259603e-06)
(0.0025881054 4.910085e-06 1.681214e-06)
(0.0025749674 4.8838315e-06 1.6379653e-06)
(0.002562175 4.8573386e-06 1.5961454e-06)
(0.0025497136 4.8305802e-06 1.5556925e-06)
(0.0025375693 4.8035394e-06 1.5165488e-06)
(0.0025257292 4.7761751e-06 1.4786607e-06)
(0.002514181 4.7483839e-06 1.4419855e-06)
(0.0025029134 4.7202745e-06 1.4064826e-06)
(0.0024919154 4.691913e-06 1.3721019e-06)
(0.0024811765 4.6632903e-06 1.3387983e-06)
(0.002470687 4.6344023e-06 1.3065296e-06)
(0.0024604377 4.6052671e-06 1.2752601e-06)
(0.0024504197 4.5759092e-06 1.2449551e-06)
(0.0024406247 4.5463456e-06 1.2155766e-06)
(0.0024310448 4.5166009e-06 1.1870934e-06)
(0.0024216723 4.4866946e-06 1.1594737e-06)
(0.0024125001 4.4566511e-06 1.1326837e-06)
(0.0024035213 4.4264899e-06 1.1066964e-06)
(0.0023947295 4.3962282e-06 1.081483e-06)
(0.0023861184 4.3658891e-06 1.0570121e-06)
(0.0023776821 4.3354875e-06 1.0332597e-06)
(0.0023694149 4.3050332e-06 1.010196e-06)
(0.0023613115 4.2745358e-06 9.8779615e-07)
(0.0023533667 4.243994e-06 9.6603039e-07)
(0.0023455757 4.2133972e-06 9.4487382e-07)
(0.0023379338 4.1827208e-06 9.2429976e-07)
(0.0023304365 4.1519266e-06 9.0427607e-07)
(0.0023230798 4.1209526e-06 8.847722e-07)
(0.0023158598 4.089725e-06 8.6575164e-07)
(0.0023087726 4.0581561e-06 8.4717261e-07)
(0.002301815 4.0261909e-06 8.2898034e-07)
(0.0022949838 3.9938767e-06 8.1110682e-07)
(0.0022882766 3.9615303e-06 7.934629e-07)
(0.002281691 3.9300774e-06 7.7594392e-07)
(0.0022752261 3.9016912e-06 7.5847844e-07)
(0.002268882 3.8809408e-06 7.4124743e-07)
(0.0022626608 3.8766477e-06 7.2572664e-07)
(0.0022565686 3.9043051e-06 7.1957935e-07)
(0.0022506189 3.9866556e-06 7.5579973e-07)
(0.0022447715 4.1390995e-06 8.4931793e-07)
(0.002233564 4.2832251e-06 2.412211e-06)
(0.0094843561 6.6886585e-05 0.00022303624)
(0.0091549219 0.00011904886 0.00026838771)
(0.0087072816 0.00014772496 0.00025588053)
(0.0082191888 0.00015892952 0.00023765677)
(0.0077602858 0.00016026049 0.00021787143)
(0.0073412804 0.00015505102 0.00019586613)
(0.0069552494 0.00014481701 0.00017327438)
(0.0065978366 0.00013121474 0.00015165024)
(0.0062677954 0.00011592881 0.00013169211)
(0.0059642872 0.00010028521 0.0001136244)
(0.0056860598 8.5214432e-05 9.7497522e-05)
(0.0054316726 7.1330409e-05 8.3272195e-05)
(0.0051997008 5.8984299e-05 7.0844883e-05)
(0.0049887459 4.8311754e-05 6.0073372e-05)
(0.0047973943 3.9291584e-05 5.0798891e-05)
(0.0046242055 3.1804356e-05 4.2859902e-05)
(0.0044677269 2.5679087e-05 3.6099808e-05)
(0.0043265179 2.0725786e-05 3.0371291e-05)
(0.0041991724 1.6756345e-05 2.5538702e-05)
(0.004084339 1.3596838e-05 2.1479083e-05)
(0.0039807371 1.1093754e-05 1.8082323e-05)
(0.0038871692 9.1161647e-06 1.5250791e-05)
(0.0038025288 7.5553801e-06 1.2898648e-05)
(0.003725804 6.3231336e-06 1.0950987e-05)
(0.0036560786 5.3488183e-06 9.3426781e-06)
(0.0035925304 4.5751808e-06 8.0166128e-06)
(0.0035344253 3.9621001e-06 6.9239487e-06)
(0.0034811131 3.4726278e-06 6.0250736e-06)
(0.0034320221 3.0815189e-06 5.2862637e-06)
(0.0033866501 2.7702762e-06 4.67921e-06)
(0.0033445586 2.5236725e-06 4.180522e-06)
(0.0033053662 2.3295859e-06 3.7707527e-06)
(0.0032687419 2.1784976e-06 3.4337451e-06)
(0.0032343982 2.0629058e-06 3.1561116e-06)
(0.0032020863 1.9768084e-06 2.9267974e-06)
(0.0031715907 1.9153169e-06 2.7367028e-06)
(0.0031427248 1.8743804e-06 2.5783555e-06)
(0.0031153267 1.8506064e-06 2.4456288e-06)
(0.0030892563 1.8411246e-06 2.3335229e-06)
(0.0030643915 1.8434983e-06 2.2379671e-06)
(0.003040626 1.8556443e-06 2.1556636e-06)
(0.0030178671 1.8757804e-06 2.0839525e-06)
(0.0029960335 1.9023806e-06 2.0206947e-06)
(0.0029750538 1.9341337e-06 1.964182e-06)
(0.0029548649 1.9699151e-06 1.913052e-06)
(0.0029354109 2.0087621e-06 1.8662271e-06)
(0.0029166424 2.0498576e-06 1.8228519e-06)
(0.0028985148 2.0925093e-06 1.7822569e-06)
(0.0028809886 2.1361367e-06 1.743914e-06)
(0.0028640277 2.1802709e-06 1.7074101e-06)
(0.0028475999 2.2245513e-06 1.6724132e-06)
(0.0028316758 2.2687604e-06 1.6386557e-06)
(0.0028162284 2.3128918e-06 1.6058712e-06)
(0.0028012324 2.3570797e-06 1.5738216e-06)
(0.0027866658 2.3978719e-06 1.5431885e-06)
(0.0027725089 2.4362348e-06 1.5136863e-06)
(0.0027587418 2.4734392e-06 1.4848879e-06)
(0.002745346 2.5095329e-06 1.4567015e-06)
(0.002732305 2.5443497e-06 1.4291166e-06)
(0.0027196032 2.5777721e-06 1.4021114e-06)
(0.0027072261 2.6097245e-06 1.3756639e-06)
(0.0026951602 2.6401657e-06 1.3497567e-06)
(0.0026833928 2.6690881e-06 1.3243748e-06)
(0.0026719116 2.6965036e-06 1.2995092e-06)
(0.0026607054 2.7223723e-06 1.2751529e-06)
(0.0026497635 2.7463558e-06 1.2513139e-06)
(0.002639076 2.7689086e-06 1.2279784e-06)
(0.0026286333 2.7901453e-06 1.2051291e-06)
(0.0026184262 2.8099933e-06 1.1827613e-06)
(0.0026084461 2.8284319e-06 1.1608706e-06)
(0.0025986849 2.845493e-06 1.1394489e-06)
(0.0025891348 2.8612184e-06 1.1184906e-06)
(0.0025797885 2.8756485e-06 1.0979867e-06)
(0.002570639 2.8888299e-06 1.0779289e-06)
(0.0025616795 2.900805e-06 1.0583099e-06)
(0.0025529038 2.9116203e-06 1.0391185e-06)
(0.0025443058 2.9213144e-06 1.0203481e-06)
(0.0025358796 2.9299287e-06 1.0019888e-06)
(0.0025276198 2.9375058e-06 9.8403147e-07)
(0.002519521 2.9440796e-06 9.6646548e-07)
(0.0025115783 2.9496807e-06 9.4927887e-07)
(0.0025037869 2.9543385e-06 9.3246248e-07)
(0.0024961421 2.9580691e-06 9.1600065e-07)
(0.0024886396 2.9608832e-06 8.9987991e-07)
(0.0024812752 2.962774e-06 8.8408557e-07)
(0.002474045 2.9637217e-06 8.6859425e-07)
(0.0024669452 2.963687e-06 8.5338147e-07)
(0.0024599723 2.9626125e-06 8.3841423e-07)
(0.0024531231 2.960432e-06 8.2364289e-07)
(0.0024463945 2.9570966e-06 8.0900335e-07)
(0.0024397839 2.9526517e-06 7.9439813e-07)
(0.0024332895 2.9473498e-06 7.7969351e-07)
(0.0024269099 2.9419117e-06 7.6470942e-07)
(0.0024206457 2.9379213e-06 7.4926047e-07)
(0.0024144993 2.9384195e-06 7.3336481e-07)
(0.0024084767 2.9484958e-06 7.1826508e-07)
(0.0024025877 2.9751257e-06 7.1113244e-07)
(0.002396846 3.0234624e-06 7.4331275e-07)
(0.0023911946 3.08083e-06 8.3046631e-07)
(0.0023803644 3.0574258e-06 2.2999435e-06)
(0.0094810492 4.4090135e-05 0.00022308885)
(0.0091422796 7.9975482e-05 0.00026874495)
(0.0086839084 0.00010160921 0.00025628771)
(0.0081880903 0.00011101591 0.00023793456)
(0.0077246858 0.00011275118 0.00021798622)
(0.0073029895 0.00010953687 0.00019578738)
(0.0069155191 0.00010266029 0.00017296032)
(0.0065579578 9.3267236e-05 0.0001510852)
(0.006229001 8.2539593e-05 0.00013089045)
(0.005927585 7.1446832e-05 0.00011261412)
(0.0056522063 6.0673361e-05 9.630924e-05)
(0.0054012005 5.0670808e-05 8.1936268e-05)
(0.0051729477 4.1706609e-05 6.9390832e-05)
(0.004965887 3.3898116e-05 5.8529097e-05)
(0.0047784814 2.7249955e-05 4.9189879e-05)
(0.0046092054 2.1693074e-05 4.1208773e-05)
(0.0044565535 1.7117438e-05 3.4426144e-05)
(0.0043190553 1.339552e-05 2.8691659e-05)
(0.0041952917 1.0397813e-05 2.3866805e-05)
(0.0040839086 8.0023325e-06 1.9826012e-05)
(0.0039836292 6.0997716e-06 1.645686e-05)
(0.0038932634 4.5956627e-06 1.3659716e-05)
(0.0038117126 3.4106734e-06 1.1347013e-05)
(0.0037379734 2.4799284e-06 9.442292e-06)
(0.0036711359 1.7515114e-06 7.8790892e-06)
(0.0036103859 1.1749041e-06 6.6010324e-06)
(0.0035549935 7.223412e-07 5.5561201e-06)
(0.0035043108 3.7342416e-07 4.7060691e-06)
(0.0034577717 1.05695e-07 4.0163451e-06)
(0.0034148763 -9.9090238e-08 3.4574134e-06)
(0.0033751872 -2.5333692e-07 3.0054954e-06)
(0.0033383243 -3.6640059e-07 2.6409733e-06)
(0.0033039576 -4.4577966e-07 2.3475722e-06)
(0.0032718009 -4.974837e-07 2.1118259e-06)
(0.0032416065 -5.26346e-07 1.9226417e-06)
(0.0032131599 -5.3630978e-07 1.7709148e-06)
(0.0031862758 -5.3064003e-07 1.6492027e-06)
(0.0031607936 -5.1206215e-07 1.5514409e-06)
(0.0031365743 -4.8287312e-07 1.4727098e-06)
(0.0031134976 -4.4500832e-07 1.4090329e-06)
(0.0030914586 -4.0011259e-07 1.3572058e-06)
(0.0030703663 -3.495794e-07 1.3146571e-06)
(0.0030501409 -2.9459548e-07 1.2793317e-06)
(0.0030307129 -2.3616948e-07 1.2495919e-06)
(0.0030120207 -1.7516665e-07 1.2241411e-06)
(0.0029940105 -1.1232113e-07 1.201953e-06)
(0.0029766343 -4.8267768e-08 1.182224e-06)
(0.0029598495 1.6449895e-08 1.1643221e-06)
(0.0029436181 8.135498e-08 1.1477521e-06)
(0.002927906 1.4602429e-07 1.1321246e-06)
(0.0029126825 2.100581e-07 1.1171186e-06)
(0.0028979201 2.7304927e-07 1.1024391e-06)
(0.0028835935 3.3454077e-07 1.08766e-06)
(0.0028696773 3.9432368e-07 1.0722015e-06)
(0.0028561514 4.570497e-07 1.0590083e-06)
(0.0028429997 5.2060051e-07 1.0472569e-06)
(0.0028302035 5.8225361e-07 1.0356074e-06)
(0.0028177449 6.416391e-07 1.0238013e-06)
(0.0028056084 6.9901964e-07 1.0118744e-06)
(0.0027937799 7.5456038e-07 9.9986754e-07)
(0.0027822461 8.0834989e-07 9.8781009e-07)
(0.0027709946 8.6046838e-07 9.7571884e-07)
(0.0027600137 9.1102538e-07 9.6360213e-07)
(0.0027492926 9.6019469e-07 9.5144689e-07)
(0.0027388207 1.0080057e-06 9.3926642e-07)
(0.0027285887 1.0528508e-06 9.274651e-07)
(0.0027185878 1.0958675e-06 9.1582956e-07)
(0.0027088089 1.1374995e-06 9.0425379e-07)
(0.0026992438 1.1777665e-06 8.9275926e-07)
(0.0026898847 1.216657e-06 8.8136608e-07)
(0.0026807244 1.2541704e-06 8.7007961e-07)
(0.0026717559 1.2903145e-06 8.5890673e-07)
(0.0026629726 1.3251076e-06 8.4785307e-07)
(0.0026543682 1.3585733e-06 8.3692322e-07)
(0.0026459367 1.390739e-06 8.2612242e-07)
(0.0026376723 1.4216359e-06 8.1545379e-07)
(0.0026295698 1.4512897e-06 8.049198e-07)
(0.0026216238 1.4797302e-06 7.9452259e-07)
(0.0026138294 1.5069897e-06 7.8426269e-07)
(0.002606182 1.5330931e-06 7.7413978e-07)
(0.0025986769 1.558064e-06 7.6415175e-07)
(0.0025913099 1.5819216e-06 7.5429552e-07)
(0.0025840769 1.6046809e-06 7.4456393e-07)
(0.0025769739 1.62635e-06 7.3495211e-07)