/*--------------------------------*- C++ -*----------------------------------*\
  =========                 |
  \\      /  F ield         | OpenFOAM: The Open Source CFD Toolbox
   \\    /   O peration     | Website:  https://openfoam.org
    \\  /    A nd           | Version:  7
     \\/     M anipulation  |
\*---------------------------------------------------------------------------*/
FoamFile
{
    version     2.0;
    format      ascii;
    class       volVectorField;
    location    "1400/water";
    object      U;
}
// * * * * * * * * * * * * * * * * * * * * * * * * * * * * * * * * * * * * * //

dimensions      [0 1 -1 0 0 0 0];

internalField   nonuniform List<vector> 
54000
(
(0.0090020934 0.00020305973 0.00020444027)
(0.0083186447 0.00023622738 0.00023904411)
(0.0073695241 0.00021363852 0.00021763527)
(0.0063566114 0.00018488016 0.00018965819)
(0.0054486673 0.00015530836 0.00016048633)
(0.0046741594 0.00012529952 0.00013052937)
(0.0040193038 9.7052611e-05 0.00010203017)
(0.0034740067 7.2578999e-05 7.7073287e-05)
(0.0030302461 5.2876126e-05 5.6738328e-05)
(0.0026757323 3.806815e-05 4.1216512e-05)
(0.0023947254 2.7637703e-05 3.0037141e-05)
(0.0021713898 2.0689033e-05 2.2336509e-05)
(0.0019919695 1.6236161e-05 1.7152703e-05)
(0.0018455015 1.3416236e-05 1.3643173e-05)
(0.0017237326 1.158249e-05 1.1179122e-05)
(0.0016206928 1.0304891e-05 9.3455808e-06)
(0.0015321593 9.3257902e-06 7.8957155e-06)
(0.0014551546 8.5052957e-06 6.6953098e-06)
(0.0013875459 7.7746333e-06 5.6760573e-06)
(0.0013277612 7.1034286e-06 4.8034863e-06)
(0.001274601 6.4798507e-06 4.0581566e-06)
(0.0012271179 5.899946e-06 3.4261577e-06)
(0.0011845424 5.3625299e-06 2.8950712e-06)
(0.001146235 4.8670222e-06 2.452629e-06)
(0.0011116558 4.4126001e-06 2.0869765e-06)
(0.0010803434 3.9980131e-06 1.7867448e-06)
(0.0010519002 3.6214605e-06 1.5416123e-06)
(0.0010259819 3.2805935e-06 1.3421846e-06)
(0.001002289 2.9733961e-06 1.1797304e-06)
(0.00098056199 2.6979494e-06 1.0463199e-06)
(0.00096057571 2.4519201e-06 9.3658963e-07)
(0.00094213242 2.2325658e-06 8.4693383e-07)
(0.00092505791 2.0373864e-06 7.731665e-07)
(0.00090920047 1.8640901e-06 7.1184264e-07)
(0.00089442818 1.7104632e-06 6.6046708e-07)
(0.0008806259 1.5743823e-06 6.170743e-07)
(0.00086769294 1.4538613e-06 5.8005348e-07)
(0.00085554128 1.3470721e-06 5.4811505e-07)
(0.00084409387 1.2523497e-06 5.202396e-07)
(0.00083328322 1.1681987e-06 4.956275e-07)
(0.00082305015 1.0932618e-06 4.7365309e-07)
(0.00081334267 1.0262297e-06 4.5378348e-07)
(0.00080411486 9.6585982e-07 4.3554441e-07)
(0.00079532615 9.1131106e-07 4.186501e-07)
(0.0007869407 8.6191614e-07 4.0290672e-07)
(0.00077892675 8.1708285e-07 3.8816907e-07)
(0.00077125603 7.7627753e-07 3.7432089e-07)
(0.0007639033 7.3902619e-07 3.6127577e-07)
(0.00075684598 7.0491449e-07 3.4896373e-07)
(0.00075006373 6.7357528e-07 3.3733081e-07)
(0.00074353821 6.4469387e-07 3.2633638e-07)
(0.00073725294 6.1802571e-07 3.1581805e-07)
(0.00073119314 5.9334774e-07 3.0574412e-07)
(0.00072534528 5.7041921e-07 2.9621079e-07)
(0.00071969687 5.4902374e-07 2.8716553e-07)
(0.00071423653 5.2901396e-07 2.7854368e-07)
(0.00070895386 5.1027231e-07 2.7031091e-07)
(0.00070383928 4.9268726e-07 2.6244791e-07)
(0.00069888397 4.7614534e-07 2.5493259e-07)
(0.00069407976 4.6055023e-07 2.4774329e-07)
(0.00068941911 4.4582087e-07 2.4086413e-07)
(0.00068489502 4.3188435e-07 2.342764e-07)
(0.00068050098 4.1867916e-07 2.2796352e-07)
(0.00067623091 4.0614609e-07 2.2191186e-07)
(0.00067207915 3.9423461e-07 2.1610613e-07)
(0.00066804042 3.828975e-07 2.1053126e-07)
(0.00066410976 3.7209567e-07 2.0517785e-07)
(0.00066028251 3.6179477e-07 2.000323e-07)
(0.00065655429 3.5196249e-07 1.9508248e-07)
(0.00065292099 3.4256919e-07 1.9031796e-07)
(0.00064937872 3.3358593e-07 1.8572912e-07)
(0.00064592384 3.2498808e-07 1.8130624e-07)
(0.00064255288 3.1675142e-07 1.7704127e-07)
(0.00063926261 3.08856e-07 1.7292561e-07)
(0.00063604992 3.0128264e-07 1.6895082e-07)
(0.00063291192 2.9401312e-07 1.6511133e-07)
(0.00062984583 2.8703173e-07 1.6139747e-07)
(0.00062684904 2.8032172e-07 1.5780341e-07)
(0.00062391907 2.7387137e-07 1.543206e-07)
(0.00062105358 2.6766601e-07 1.5094238e-07)
(0.00061825035 2.6169477e-07 1.476608e-07)
(0.00061550727 2.5594606e-07 1.4446959e-07)
(0.00061282235 2.5040693e-07 1.4135994e-07)
(0.00061019373 2.4506912e-07 1.3832392e-07)
(0.00060761964 2.3991981e-07 1.3535667e-07)
(0.00060509846 2.3494643e-07 1.3244912e-07)
(0.00060262863 2.3013481e-07 1.2959805e-07)
(0.00060020873 2.2547025e-07 1.2680462e-07)
(0.00059783744 2.2093264e-07 1.2407461e-07)
(0.00059551348 2.1649886e-07 1.2143328e-07)
(0.00059323555 2.1214949e-07 1.1892864e-07)
(0.00059100214 2.0787248e-07 1.1666281e-07)
(0.00058881114 2.0369097e-07 1.1483119e-07)
(0.00058665898 1.997309e-07 1.1381937e-07)
(0.0005845387 1.9638433e-07 1.1441073e-07)
(0.00058243502 1.9487321e-07 1.1837307e-07)
(0.00058031396 1.9977479e-07 1.3094468e-07)
(0.0005781161 2.2258516e-07 1.6397685e-07)
(0.00057566369 1.9706867e-07 1.5080672e-07)
(0.00056906201 7.8896433e-07 7.5322536e-07)
(0.0095316863 0.0003313754 0.00022336697)
(0.0092716504 0.00041105943 0.00027052342)
(0.0087756651 0.00040317187 0.00026060062)
(0.0081527518 0.00038218754 0.00024252081)
(0.0075302151 0.00035309574 0.00022101124)
(0.0069425889 0.00031541062 0.00019648834)
(0.006391209 0.00027309198 0.00017102969)
(0.0058791845 0.00023030694 0.00014652546)
(0.0054120202 0.00019001855 0.00012410997)
(0.0049926512 0.00015423459 0.00010436627)
(0.004620592 0.00012408347 8.7479018e-05)
(0.0042931332 9.9809402e-05 7.3327496e-05)
(0.0040063965 8.0956425e-05 6.1601504e-05)
(0.0037559538 6.6672211e-05 5.1918795e-05)
(0.0035372541 5.5985801e-05 4.3907445e-05)
(0.003345947 4.7992056e-05 3.7246646e-05)
(0.0031780884 4.194171e-05 3.167753e-05)
(0.0030302311 3.7262446e-05 2.699792e-05)
(0.0028994324 3.3540996e-05 2.3051138e-05)
(0.0027832152 3.0490244e-05 1.9714593e-05)
(0.0026795075 2.7915736e-05 1.6890544e-05)
(0.0025865783 2.5687841e-05 1.4499382e-05)
(0.002502978 2.3720893e-05 1.2475016e-05)
(0.0024274871 2.1958432e-05 1.0761725e-05)
(0.0023590736 2.0362994e-05 9.3122311e-06)
(0.0022968589 1.8909454e-05 8.0861283e-06)
(0.0022400906 1.7580768e-05 7.0489618e-06)
(0.0021881216 1.6364898e-05 6.171496e-06)
(0.0021403932 1.5251964e-05 5.4283131e-06)
(0.0020964214 1.4233849e-05 4.7973508e-06)
(0.0020557868 1.3303039e-05 4.260482e-06)
(0.0020181236 1.2451984e-05 3.8027028e-06)
(0.0019831119 1.1673908e-05 3.4109604e-06)
(0.0019504718 1.0962756e-05 3.0744212e-06)
(0.0019199589 1.0312854e-05 2.7842605e-06)
(0.0018913593 9.718834e-06 2.5331799e-06)
(0.0018644851 9.175645e-06 2.3150745e-06)
(0.0018391716 8.6785735e-06 2.1248315e-06)
(0.0018152735 8.2232427e-06 1.9581847e-06)
(0.0017926629 7.8056205e-06 1.8115677e-06)
(0.0017712268 7.4219981e-06 1.6820115e-06)
(0.001750865 7.0689382e-06 1.56707e-06)
(0.0017314886 6.7432695e-06 1.4647425e-06)
(0.0017130186 6.4422731e-06 1.3732749e-06)
(0.0016953848 6.1635561e-06 1.2911591e-06)
(0.0016785241 5.9049776e-06 1.2171192e-06)
(0.00166238 5.6646102e-06 1.1500841e-06)
(0.0016469019 5.4407251e-06 1.0891485e-06)
(0.001632044 5.2317767e-06 1.033553e-06)
(0.0016177648 5.0363843e-06 9.8265449e-07)
(0.0016040271 4.8533221e-06 9.3589358e-07)
(0.0015907965 4.6815629e-06 8.9273764e-07)
(0.0015780424 4.5201576e-06 8.5278738e-07)
(0.0015657364 4.3681536e-06 8.1576956e-07)
(0.0015538526 4.2246814e-06 7.8138474e-07)
(0.0015423672 4.0890588e-06 7.4934485e-07)
(0.0015312583 3.9607273e-06 7.1941297e-07)
(0.0015205058 3.8391516e-06 6.9138726e-07)
(0.0015100909 3.7238136e-06 6.6509379e-07)
(0.0014999963 3.6142439e-06 6.4037922e-07)
(0.0014902061 3.51003e-06 6.1710853e-07)
(0.0014807053 3.4107974e-06 5.9516116e-07)
(0.00147148 3.3162107e-06 5.744277e-07)
(0.0014625175 3.2259587e-06 5.5481563e-07)
(0.0014538055 3.1397553e-06 5.3623638e-07)
(0.0014453328 3.0573356e-06 5.1861363e-07)
(0.0014370889 2.9784719e-06 5.0187855e-07)
(0.0014290637 2.9029589e-06 4.8596808e-07)
(0.001421248 2.8306029e-06 4.7082438e-07)
(0.001413633 2.7612184e-06 4.5639263e-07)
(0.0014062104 2.6946334e-06 4.4262805e-07)
(0.0013989723 2.6306914e-06 4.2948689e-07)
(0.0013919116 2.5692453e-06 4.1693053e-07)
(0.0013850211 2.5101631e-06 4.0492053e-07)
(0.0013782945 2.4533176e-06 3.9342536e-07)
(0.0013717253 2.3985955e-06 3.8241174e-07)
(0.0013653078 2.3458844e-06 3.7185158e-07)
(0.0013590364 2.2950854e-06 3.6171733e-07)
(0.0013529058 2.2461041e-06 3.519834e-07)
(0.001346911 2.1988517e-06 3.4262516e-07)
(0.0013410472 2.1532423e-06 3.3362102e-07)
(0.0013353099 2.1091957e-06 3.2494524e-07)
(0.001329695 2.0666356e-06 3.1657899e-07)
(0.0013241983 2.0254888e-06 3.085008e-07)
(0.001318816 1.9856737e-06 3.0069045e-07)
(0.0013135446 1.9471141e-06 2.9313065e-07)
(0.0013083808 1.9097267e-06 2.8580623e-07)
(0.0013033213 1.8734255e-06 2.7870233e-07)
(0.0012983632 1.8381166e-06 2.7181648e-07)
(0.0012935038 1.8037146e-06 2.6515376e-07)
(0.0012887402 1.7701706e-06 2.5874296e-07)
(0.0012840698 1.7375338e-06 2.5265014e-07)
(0.0012794889 1.7061213e-06 2.4701364e-07)
(0.0012749925 1.6769097e-06 2.4211363e-07)
(0.001270572 1.6524683e-06 2.3851871e-07)
(0.0012662098 1.6393331e-06 2.3765892e-07)
(0.0012618709 1.654577e-06 2.4458235e-07)
(0.0012574959 1.7463718e-06 2.7712555e-07)
(0.0012529717 2.0376715e-06 2.6526522e-07)
(0.0012433358 2.9514814e-06 1.3525329e-06)
(0.0095221617 0.00021179965 0.00022180581)
(0.009269783 0.00029872516 0.00026628967)
(0.0088657772 0.00031669844 0.00025526743)
(0.0083755729 0.000317438 0.00023864265)
(0.0078888426 0.00030841043 0.00021987851)
(0.0074276349 0.00028848207 0.00019850458)
(0.006988258 0.00026048391 0.00017617916)
(0.0065698164 0.00022855168 0.00015444521)
(0.0061756011 0.00019596771 0.00013413534)
(0.0058087146 0.00016504408 0.00011567593)
(0.0054706295 0.00013728621 9.9270839e-05)
(0.0051615551 0.00011345265 8.4947831e-05)
(0.0048808654 9.3684508e-05 7.2600738e-05)
(0.0046272998 7.7712988e-05 6.2044901e-05)
(0.0043991196 6.5057025e-05 5.3064542e-05)
(0.0041942886 5.5163888e-05 4.544363e-05)
(0.0040106431 4.7493347e-05 3.8982754e-05)
(0.0038460219 4.1561376e-05 3.350638e-05)
(0.0036983537 3.6958194e-05 2.8864075e-05)
(0.0035657105 3.3351176e-05 2.4928487e-05)
(0.0034463343 3.0479502e-05 2.1592135e-05)
(0.003338646 2.8144767e-05 1.8764099e-05)
(0.003241243 2.6200156e-05 1.6367138e-05)
(0.0031528887 2.4539753e-05 1.4335368e-05)
(0.0030724986 2.3088867e-05 1.2612489e-05)
(0.0029991252 2.1796113e-05 1.1150134e-05)
(0.0029319421 2.0626904e-05 9.9064817e-06)
(0.0028702292 1.9558163e-05 8.845815e-06)
(0.0028133589 1.8574038e-05 7.9385371e-06)
(0.0027607855 1.7663622e-05 7.1598226e-06)
(0.0027120345 1.6818832e-05 6.4890356e-06)
(0.0026666927 1.6033065e-05 5.9090206e-06)
(0.0026243991 1.5301095e-05 5.4052721e-06)
(0.0025848382 1.461882e-05 4.9656535e-06)
(0.0025477347 1.3982712e-05 4.5801155e-06)
(0.0025128472 1.3389543e-05 4.240327e-06)
(0.002479964 1.2836281e-05 3.9393553e-06)
(0.0024488994 1.2320058e-05 3.6714255e-06)
(0.0024194896 1.1838144e-05 3.4317276e-06)
(0.00239159 1.1387939e-05 3.2162515e-06)
(0.0023650729 1.0966986e-05 3.0216599e-06)
(0.0023398248 1.0573e-05 2.8451743e-06)
(0.0023157449 1.0203875e-05 2.6844747e-06)
(0.0022927433 9.8575806e-06 2.537595e-06)
(0.0022707398 9.5322155e-06 2.4028642e-06)
(0.002249662 9.2260282e-06 2.2788664e-06)
(0.0022294453 8.9374188e-06 2.1643995e-06)
(0.0022100312 8.6649286e-06 2.0584385e-06)
(0.0021913666 8.4072368e-06 1.9601003e-06)
(0.0021734038 8.1631544e-06 1.8686316e-06)
(0.0021560989 7.9316205e-06 1.7833669e-06)
(0.0021394122 7.7117242e-06 1.7037079e-06)
(0.0021233074 7.5026038e-06 1.6291517e-06)
(0.0021077512 7.3033797e-06 1.5592831e-06)
(0.0020927129 7.1131877e-06 1.4937191e-06)
(0.0020781645 6.9314157e-06 1.4321042e-06)
(0.0020640799 6.7576053e-06 1.374114e-06)
(0.0020504351 6.5912606e-06 1.3194607e-06)
(0.0020372075 6.4318792e-06 1.2678941e-06)
(0.0020243766 6.2790062e-06 1.2191868e-06)
(0.0020119231 6.1322408e-06 1.1731324e-06)
(0.001999829 5.9912198e-06 1.1295441e-06)
(0.0019880776 5.8556098e-06 1.0882503e-06)
(0.0019766531 5.7251044e-06 1.0490955e-06)
(0.0019655411 5.5994085e-06 1.0119379e-06)
(0.0019547276 5.4782453e-06 9.7664742e-07)
(0.0019441999 5.3613904e-06 9.431012e-07)
(0.0019339458 5.2486478e-06 9.1118925e-07)
(0.0019239539 5.1398187e-06 8.8080818e-07)
(0.0019142135 5.0347025e-06 8.5186085e-07)
(0.0019047144 4.9331187e-06 8.2425947e-07)
(0.001895447 4.8349005e-06 7.9792447e-07)
(0.0018864023 4.7398898e-06 7.7277964e-07)
(0.0018775718 4.647944e-06 7.4875603e-07)
(0.0018689473 4.5589228e-06 7.2578862e-07)
(0.0018605211 4.4727003e-06 7.0381429e-07)
(0.0018522861 4.3891523e-06 6.827769e-07)
(0.0018442353 4.3081683e-06 6.6262531e-07)
(0.0018363621 4.229638e-06 6.4330656e-07)
(0.0018286604 4.1534589e-06 6.2477612e-07)
(0.0018211241 4.0795294e-06 6.06989e-07)
(0.0018137478 4.0077521e-06 5.8990071e-07)
(0.0018065261 3.9380347e-06 5.7347247e-07)
(0.001799454 3.87028e-06 5.5766621e-07)
(0.0017925266 3.8043819e-06 5.4244711e-07)
(0.0017857396 3.7402362e-06 5.27779e-07)
(0.0017790885 3.6777269e-06 5.136301e-07)
(0.0017725695 3.6167277e-06 4.9997007e-07)
(0.0017661787 3.5571086e-06 4.8677477e-07)
(0.0017599128 3.4987612e-06 4.7402482e-07)
(0.0017537682 3.4416537e-06 4.6170981e-07)
(0.0017477416 3.3859642e-06 4.4983605e-07)
(0.0017418294 3.3323818e-06 4.3844284e-07)
(0.0017360272 3.2827923e-06 4.2764743e-07)
(0.0017303281 3.2417782e-06 4.1776901e-07)
(0.0017247202 3.2200408e-06 4.0999102e-07)
(0.001719183 3.2421556e-06 4.0985022e-07)
(0.001713691 3.364344e-06 4.4114447e-07)
(0.0017081999 3.7072209e-06 4.7353424e-07)
(0.0016974804 4.4611201e-06 1.8634997e-06)
(0.0095012861 0.00013951169 0.00022248511)
(0.0092133349 0.00022408324 0.00026709763)
(0.0088018509 0.0002570094 0.00025529581)
(0.0083306071 0.00026690691 0.0002382081)
(0.0078754299 0.00026502159 0.00021939837)
(0.0074527063 0.0002529565 0.00019823245)
(0.0070564396 0.00023295893 0.00017634609)
(0.0066827538 0.00020836345 0.0001552305)
(0.006331873 0.00018203353 0.00013558338)
(0.0060047052 0.00015603739 0.00011769036)
(0.0057015056 0.00013180401 0.00010166909)
(0.0054220192 0.00011020725 8.7524313e-05)
(0.0051656909 9.16319e-05 7.5171985e-05)
(0.0049316845 7.6091185e-05 6.4472618e-05)
(0.0047188814 6.3363142e-05 5.526115e-05)
(0.0045259349 5.3104942e-05 4.736682e-05)
(0.0043513547 4.4932757e-05 4.0624899e-05)
(0.0041935865 3.8471359e-05 3.4883032e-05)
(0.0040510752 3.3381245e-05 3.0003996e-05)
(0.0039223115 2.9370509e-05 2.5866182e-05)
(0.0038058643 2.6197262e-05 2.2362868e-05)
(0.0037004012 2.366673e-05 1.9400962e-05)
(0.0036047 2.1625757e-05 1.689961e-05)
(0.0035176529 1.9956326e-05 1.4788823e-05)
(0.0034382652 1.8569047e-05 1.3008104e-05)
(0.0033656513 1.7397361e-05 1.1504745e-05)
(0.0032990266 1.6392003e-05 1.0233524e-05)
(0.0032376995 1.551624e-05 9.156535e-06)
(0.0031810636 1.4743887e-05 8.2421115e-06)
(0.0031285885 1.4056151e-05 7.4635751e-06)
(0.0030798115 1.3438894e-05 6.7985202e-06)
(0.0030343294 1.2881151e-05 6.2282224e-06)
(0.0029917905 1.2374495e-05 5.736983e-06)
(0.0029518882 1.191242e-05 5.3116666e-06)
(0.0029143553 1.148969e-05 4.941354e-06)
(0.0028789586 1.1101927e-05 4.6170007e-06)
(0.0028454946 1.0745378e-05 4.331123e-06)
(0.0028137847 1.0416774e-05 4.0775292e-06)
(0.0027836727 1.0113218e-05 3.8511088e-06)
(0.0027550209 9.8321222e-06 3.647646e-06)
(0.0027277081 9.57116e-06 3.4636648e-06)
(0.002701627 9.3282497e-06 3.2963012e-06)
(0.0026766823 9.1015162e-06 3.1431916e-06)
(0.0026527895 8.8892437e-06 3.0023821e-06)
(0.0026298729 8.6898919e-06 2.872256e-06)
(0.0026078647 8.5020882e-06 2.7514701e-06)
(0.002586704 8.3246168e-06 2.6389096e-06)
(0.0025663358 8.1563965e-06 2.5336426e-06)
(0.0025467102 7.9964766e-06 2.4348844e-06)
(0.002527782 7.8440275e-06 2.3419785e-06)
(0.0025095101 7.6983368e-06 2.2543614e-06)
(0.0024918566 7.5588101e-06 2.1715445e-06)
(0.0024747871 7.4248996e-06 2.0931122e-06)
(0.0024582699 7.2960223e-06 2.0187194e-06)
(0.0024422756 7.17144e-06 1.9480693e-06)
(0.0024267775 7.050929e-06 1.8808986e-06)
(0.0024117506 6.9343775e-06 1.8169521e-06)
(0.0023971715 6.8214886e-06 1.7560011e-06)
(0.0023830185 6.7119554e-06 1.6978516e-06)
(0.0023692714 6.6055379e-06 1.6423282e-06)
(0.0023559116 6.5020435e-06 1.5892718e-06)
(0.0023429214 6.4013078e-06 1.538538e-06)
(0.0023302844 6.3031794e-06 1.4899943e-06)
(0.0023179851 6.2075248e-06 1.4435171e-06)
(0.0023060089 6.1142031e-06 1.3989949e-06)
(0.0022943424 6.0230684e-06 1.3563263e-06)
(0.0022829727 5.9340575e-06 1.315416e-06)
(0.0022718877 5.8471288e-06 1.2761707e-06)
(0.002261076 5.7622039e-06 1.2385024e-06)
(0.0022505267 5.6791972e-06 1.2023319e-06)
(0.0022402296 5.5980418e-06 1.1675829e-06)
(0.0022301752 5.5186725e-06 1.1341885e-06)
(0.0022203542 5.4410297e-06 1.1020813e-06)
(0.002210758 5.3650626e-06 1.0711996e-06)
(0.0022013784 5.2907192e-06 1.0414858e-06)
(0.0021922076 5.217949e-06 1.0128816e-06)
(0.0021832381 5.1467101e-06 9.8533717e-07)
(0.0021744628 5.0769578e-06 9.5880268e-07)
(0.0021658752 5.0086509e-06 9.3322978e-07)
(0.0021574688 4.9417457e-06 9.0857415e-07)
(0.0021492375 4.876199e-06 8.8479096e-07)
(0.0021411756 4.8119664e-06 8.6183882e-07)
(0.0021332776 4.7489985e-06 8.3967832e-07)
(0.0021255383 4.6872381e-06 8.1827043e-07)
(0.0021179527 4.6266213e-06 7.9757637e-07)
(0.0021105161 4.5670677e-06 7.775596e-07)
(0.0021032242 4.5084815e-06 7.5818438e-07)
(0.0020960727 4.4507554e-06 7.3941113e-07)
(0.0020890577 4.3937755e-06 7.2120243e-07)
(0.0020821756 4.3374554e-06 7.0352052e-07)
(0.002075423 4.2818101e-06 6.8632159e-07)
(0.0020687967 4.2271331e-06 6.6956247e-07)
(0.0020622937 4.1743534e-06 6.5320355e-07)
(0.002055911 4.1258143e-06 6.3726109e-07)
(0.0020496453 4.0868293e-06 6.2198503e-07)
(0.0020434926 4.0687766e-06 6.0874767e-07)
(0.0020374483 4.094877e-06 6.0452194e-07)
(0.0020315149 4.2094268e-06 6.3987799e-07)
(0.0020256647 4.47975e-06 7.1688359e-07)
(0.0020144539 4.9057777e-06 2.2695249e-06)
(0.0094902877 9.6726607e-05 0.00022289229)
(0.00917661 0.00016632333 0.00026788105)
(0.0087449456 0.00019969046 0.00025550648)
(0.0082664657 0.00021101604 0.00023762681)
(0.00781215 0.0002109939 0.0002181603)
(0.0073950862 0.0002028236 0.00019646328)
(0.0070087986 0.00018827265 0.00017418493)
(0.006648835 0.00016968865 0.0001528463)
(0.0063142174 0.00014929331 0.00013312182)
(0.0060045996 0.00012875288 0.0001152379)
(0.0057192201 0.00010923292 9.9256791e-05)
(0.0054570682 9.1490072e-05 8.514891e-05)
(0.0052170782 7.5923401e-05 7.2816212e-05)
(0.0049981259 6.264333e-05 6.2119133e-05)
(0.0047989841 5.1561152e-05 5.2900048e-05)
(0.0046183234 4.2472278e-05 4.4997975e-05)
(0.0044547458 3.5118725e-05 3.8256896e-05)
(0.0043068267 2.9230543e-05 3.2530442e-05)
(0.0041731526 2.4550833e-05 2.7684339e-05)
(0.0040523509 2.0849109e-05 2.3597361e-05)
(0.0039431142 1.792691e-05 2.0161346e-05)
(0.0038442168 1.5618599e-05 1.7280682e-05)
(0.0037545253 1.3789363e-05 1.4871531e-05)
(0.0036730042 1.2331757e-05 1.2860862e-05)
(0.0035987172 1.1161537e-05 1.1185211e-05)
(0.0035308246 1.0213365e-05 9.7889742e-06)
(0.0034685786 9.4380814e-06 8.6250718e-06)
(0.0034113173 8.7971272e-06 7.6543149e-06)
(0.0033584589 8.2627201e-06 6.8439387e-06)
(0.0033094933 7.8140817e-06 6.166455e-06)
(0.0032639753 7.4348235e-06 5.5988452e-06)
(0.0032215172 7.1121298e-06 5.1219275e-06)
(0.0031817817 6.836097e-06 4.7197276e-06)
(0.0031444758 6.5990202e-06 4.3789732e-06)
(0.0031093448 6.394779e-06 4.0886809e-06)
(0.0030761678 6.2184041e-06 3.8397968e-06)
(0.0030447526 6.065795e-06 3.6248788e-06)
(0.003014932 5.9335274e-06 3.4378177e-06)
(0.0029865602 5.8186966e-06 3.2736184e-06)
(0.0029595097 5.7188191e-06 3.1282036e-06)
(0.002933669 5.6317497e-06 2.9982616e-06)
(0.0029089401 5.5556256e-06 2.8810977e-06)
(0.0028852364 5.4888235e-06 2.7745336e-06)
(0.0028624815 5.4299132e-06 2.6768106e-06)
(0.0028406075 5.377643e-06 2.5865055e-06)
(0.0028195538 5.3309231e-06 2.5024724e-06)
(0.0027992664 5.2888089e-06 2.423789e-06)
(0.0027796963 5.2504826e-06 2.3497109e-06)
(0.0027607998 5.2152429e-06 2.279637e-06)
(0.002742537 5.1824978e-06 2.2130843e-06)
(0.0027248717 5.1517669e-06 2.1496546e-06)
(0.0027077708 5.1226681e-06 2.0890231e-06)
(0.0026912041 5.0948949e-06 2.0309199e-06)
(0.0026751435 5.0680876e-06 1.9751371e-06)
(0.0026595636 5.0410676e-06 1.9215402e-06)
(0.0026444411 5.01426e-06 1.8699669e-06)
(0.002629754 4.9880192e-06 1.8202514e-06)
(0.0026154815 4.9620719e-06 1.7722792e-06)
(0.0026016045 4.9361407e-06 1.7259605e-06)
(0.0025881054 4.9100847e-06 1.6812152e-06)
(0.0025749674 4.8838312e-06 1.6379656e-06)
(0.002562175 4.8573383e-06 1.5961465e-06)
(0.0025497136 4.8305795e-06 1.5556935e-06)
(0.0025375693 4.8035386e-06 1.5165486e-06)
(0.0025257292 4.7761745e-06 1.4786613e-06)
(0.002514181 4.7483826e-06 1.4419861e-06)
(0.0025029134 4.7202734e-06 1.4064834e-06)
(0.0024919154 4.6919131e-06 1.3721019e-06)
(0.0024811765 4.6632889e-06 1.3387968e-06)
(0.002470687 4.6344001e-06 1.3065288e-06)
(0.0024604377 4.605267e-06 1.2752602e-06)
(0.0024504197 4.5759082e-06 1.2449541e-06)
(0.0024406247 4.546346e-06 1.2155759e-06)
(0.0024310448 4.516601e-06 1.1870939e-06)
(0.0024216723 4.486697e-06 1.1594732e-06)
(0.0024125001 4.4566516e-06 1.1326839e-06)
(0.0024035213 4.4264903e-06 1.1066971e-06)
(0.0023947295 4.3962294e-06 1.0814824e-06)
(0.0023861184 4.3658898e-06 1.0570124e-06)
(0.0023776821 4.3354875e-06 1.03326e-06)
(0.0023694149 4.3050325e-06 1.0101963e-06)
(0.0023613115 4.2745357e-06 9.877948e-07)
(0.0023533667 4.2439933e-06 9.6603032e-07)
(0.0023455757 4.2133941e-06 9.4487417e-07)
(0.0023379338 4.18272e-06 9.2429898e-07)
(0.0023304365 4.1519272e-06 9.0427609e-07)
(0.0023230798 4.1209546e-06 8.8477209e-07)
(0.0023158598 4.0897264e-06 8.657516e-07)
(0.0023087726 4.0581571e-06 8.4717255e-07)
(0.002301815 4.0261921e-06 8.2898117e-07)
(0.0022949838 3.9938778e-06 8.111074e-07)
(0.0022882766 3.961531e-06 7.9346303e-07)
(0.002281691 3.9300784e-06 7.7594398e-07)
(0.0022752261 3.9016919e-06 7.5847772e-07)
(0.002268882 3.8809402e-06 7.4124694e-07)
(0.0022626608 3.8766472e-06 7.2572812e-07)
(0.0022565686 3.9043046e-06 7.1957963e-07)
(0.0022506189 3.986656e-06 7.5579881e-07)
(0.0022447715 4.1391014e-06 8.493162e-07)
(0.002233564 4.2832262e-06 2.4122105e-06)
(0.0094843561 6.6886586e-05 0.00022303624)
(0.0091549219 0.00011904886 0.00026838771)
(0.0087072816 0.00014772496 0.00025588053)
(0.0082191888 0.00015892952 0.00023765677)
(0.0077602858 0.00016026049 0.00021787143)
(0.0073412804 0.00015505102 0.00019586613)
(0.0069552494 0.00014481701 0.00017327438)
(0.0065978366 0.00013121474 0.00015165024)
(0.0062677954 0.00011592881 0.00013169211)
(0.0059642872 0.00010028521 0.0001136244)
(0.0056860598 8.5214432e-05 9.7497522e-05)
(0.0054316726 7.1330408e-05 8.3272195e-05)
(0.0051997008 5.8984297e-05 7.0844883e-05)
(0.0049887459 4.8311753e-05 6.0073373e-05)
(0.0047973943 3.9291582e-05 5.079889e-05)
(0.0046242055 3.1804353e-05 4.2859902e-05)
(0.0044677269 2.5679085e-05 3.6099807e-05)
(0.0043265179 2.0725784e-05 3.0371292e-05)
(0.0041991724 1.6756342e-05 2.5538703e-05)
(0.004084339 1.3596836e-05 2.1479083e-05)
(0.0039807371 1.1093752e-05 1.8082324e-05)
(0.0038871692 9.1161629e-06 1.525079e-05)
(0.0038025288 7.5553779e-06 1.2898647e-05)
(0.003725804 6.3231327e-06 1.0950985e-05)
(0.0036560786 5.3488168e-06 9.3426774e-06)
(0.0035925304 4.575181e-06 8.0166139e-06)
(0.0035344253 3.9620994e-06 6.9239487e-06)
(0.0034811131 3.4726267e-06 6.0250731e-06)
(0.0034320221 3.0815198e-06 5.2862642e-06)
(0.0033866501 2.7702768e-06 4.6792103e-06)
(0.0033445586 2.5236734e-06 4.180522e-06)
(0.0033053662 2.3295859e-06 3.770752e-06)
(0.0032687419 2.1784982e-06 3.4337441e-06)
(0.0032343982 2.0629058e-06 3.1561114e-06)
(0.0032020863 1.9768088e-06 2.9267974e-06)
(0.0031715907 1.9153172e-06 2.7367041e-06)
(0.0031427248 1.874379e-06 2.578356e-06)
(0.0031153267 1.8506041e-06 2.4456287e-06)
(0.0030892563 1.841124e-06 2.3335232e-06)
(0.0030643915 1.8434984e-06 2.2379674e-06)
(0.003040626 1.8556443e-06 2.1556641e-06)
(0.0030178671 1.8757795e-06 2.0839522e-06)
(0.0029960335 1.9023804e-06 2.0206948e-06)
(0.0029750538 1.934133e-06 1.9641812e-06)
(0.0029548648 1.9699152e-06 1.9130528e-06)
(0.0029354109 2.0087619e-06 1.8662265e-06)
(0.0029166424 2.0498581e-06 1.8228518e-06)
(0.0028985148 2.0925102e-06 1.7822567e-06)
(0.0028809885 2.1361383e-06 1.7439138e-06)
(0.0028640277 2.1802703e-06 1.70741e-06)
(0.0028476 2.2245508e-06 1.6724139e-06)
(0.0028316758 2.2687593e-06 1.6386555e-06)
(0.0028162284 2.3128924e-06 1.6058713e-06)
(0.0028012324 2.3570792e-06 1.5738223e-06)
(0.0027866658 2.3978727e-06 1.5431896e-06)
(0.0027725089 2.4362358e-06 1.5136874e-06)
(0.0027587418 2.4734413e-06 1.4848888e-06)
(0.002745346 2.5095339e-06 1.4567016e-06)
(0.002732305 2.5443492e-06 1.4291163e-06)
(0.0027196032 2.577772e-06 1.4021124e-06)
(0.0027072261 2.6097232e-06 1.3756639e-06)
(0.0026951602 2.6401652e-06 1.3497563e-06)
(0.0026833928 2.6690874e-06 1.3243748e-06)
(0.0026719116 2.6965032e-06 1.2995097e-06)
(0.0026607054 2.7223716e-06 1.2751525e-06)
(0.0026497635 2.746355e-06 1.2513137e-06)
(0.002639076 2.7689066e-06 1.2279779e-06)
(0.0026286333 2.7901444e-06 1.2051288e-06)
(0.0026184262 2.8099915e-06 1.1827616e-06)
(0.0026084461 2.8284311e-06 1.1608701e-06)
(0.0025986849 2.845492e-06 1.139449e-06)
(0.0025891348 2.8612163e-06 1.1184908e-06)
(0.0025797885 2.8756486e-06 1.0979863e-06)
(0.002570639 2.8888305e-06 1.0779286e-06)
(0.0025616795 2.900805e-06 1.0583091e-06)
(0.0025529038 2.9116189e-06 1.039118e-06)
(0.0025443058 2.9213149e-06 1.020348e-06)
(0.0025358796 2.92993e-06 1.0019897e-06)
(0.0025276198 2.9375059e-06 9.840314e-07)
(0.002519521 2.9440786e-06 9.664648e-07)
(0.0025115783 2.9496797e-06 9.4927894e-07)
(0.0025037869 2.954337e-06 9.3246032e-07)
(0.0024961421 2.9580666e-06 9.1599961e-07)
(0.0024886396 2.9608801e-06 8.9988003e-07)
(0.0024812752 2.9627715e-06 8.8408413e-07)
(0.002474045 2.9637209e-06 8.6859343e-07)
(0.0024669452 2.9636877e-06 8.5338156e-07)
(0.0024599723 2.9626145e-06 8.3841388e-07)
(0.0024531231 2.9604309e-06 8.2364338e-07)
(0.0024463945 2.9570972e-06 8.0900406e-07)
(0.0024397839 2.952653e-06 7.9439868e-07)
(0.0024332895 2.9473515e-06 7.7969366e-07)
(0.0024269099 2.9419145e-06 7.6470952e-07)
(0.0024206457 2.9379227e-06 7.4926011e-07)
(0.0024144993 2.9384194e-06 7.3336516e-07)
(0.0024084767 2.9484972e-06 7.1826443e-07)
(0.0024025877 2.9751251e-06 7.1113274e-07)
(0.002396846 3.0234618e-06 7.4331416e-07)
(0.0023911946 3.0808308e-06 8.3046601e-07)
(0.0023803644 3.0574259e-06 2.299944e-06)
(0.0094810492 4.4090135e-05 0.00022308885)
(0.0091422796 7.9975483e-05 0.00026874495)
(0.0086839084 0.00010160921 0.00025628771)
(0.0081880903 0.00011101591 0.00023793456)
(0.0077246858 0.00011275118 0.00021798622)
(0.0073029895 0.00010953687 0.00019578738)
(0.0069155191 0.00010266029 0.00017296032)
(0.0065579578 9.3267236e-05 0.0001510852)
(0.006229001 8.2539593e-05 0.00013089045)
(0.005927585 7.1446833e-05 0.00011261412)
(0.0056522063 6.0673359e-05 9.6309239e-05)
(0.0054012005 5.0670807e-05 8.1936267e-05)
(0.0051729477 4.1706607e-05 6.9390832e-05)
(0.004965887 3.3898115e-05 5.8529097e-05)
(0.0047784814 2.7249954e-05 4.9189879e-05)
(0.0046092054 2.1693072e-05 4.1208774e-05)
(0.0044565535 1.7117436e-05 3.4426143e-05)
(0.0043190553 1.3395518e-05 2.8691659e-05)
(0.0041952917 1.0397812e-05 2.3866805e-05)
(0.0040839086 8.0023312e-06 1.9826012e-05)
(0.0039836292 6.0997694e-06 1.645686e-05)
(0.0038932634 4.5956612e-06 1.3659716e-05)
(0.0038117126 3.4106715e-06 1.1347012e-05)
(0.0037379734 2.4799281e-06 9.442291e-06)
(0.0036711359 1.75151e-06 7.8790883e-06)
(0.0036103859 1.174904e-06 6.6010324e-06)
(0.0035549935 7.2234015e-07 5.55612e-06)
(0.0035043108 3.7342512e-07 4.7060694e-06)
(0.0034577717 1.0569685e-07 4.0163444e-06)
(0.0034148763 -9.9089578e-08 3.4574136e-06)
(0.0033751872 -2.5333594e-07 3.0054963e-06)
(0.0033383243 -3.6639961e-07 2.640974e-06)
(0.0033039576 -4.4577857e-07 2.3475729e-06)
(0.0032718009 -4.9748324e-07 2.1118262e-06)
(0.0032416065 -5.2634583e-07 1.9226426e-06)
(0.0032131599 -5.3631001e-07 1.7709148e-06)
(0.0031862758 -5.3064076e-07 1.6492031e-06)
(0.0031607936 -5.1206369e-07 1.5514412e-06)
(0.0031365743 -4.8287186e-07 1.4727101e-06)
(0.0031134976 -4.4500657e-07 1.4090335e-06)
(0.0030914586 -4.0011199e-07 1.357206e-06)
(0.0030703663 -3.4957943e-07 1.3146576e-06)
(0.0030501409 -2.9459486e-07 1.2793306e-06)
(0.0030307129 -2.3617086e-07 1.2495916e-06)
(0.0030120207 -1.7516592e-07 1.2241405e-06)
(0.0029940105 -1.1232241e-07 1.2019529e-06)
(0.0029766343 -4.8268162e-08 1.1822227e-06)
(0.0029598495 1.6449697e-08 1.1643214e-06)
(0.0029436181 8.1355851e-08 1.1477524e-06)
(0.002927906 1.4602524e-07 1.1321243e-06)
(0.0029126825 2.1005805e-07 1.1171188e-06)
(0.0028979201 2.7304822e-07 1.1024395e-06)
(0.0028835935 3.3454032e-07 1.0876608e-06)
(0.0028696773 3.9432155e-07 1.0722021e-06)
(0.0028561514 4.5704858e-07 1.0590089e-06)
(0.0028429997 5.2060024e-07 1.0472575e-06)
(0.0028302035 5.8225282e-07 1.0356072e-06)
(0.0028177449 6.4163779e-07 1.0238013e-06)
(0.0028056084 6.9901735e-07 1.0118754e-06)
(0.0027937799 7.5455967e-07 9.9986982e-07)
(0.0027822461 8.0834846e-07 9.8781087e-07)
(0.0027709946 8.6046785e-07 9.7571825e-07)
(0.0027600137 9.1102583e-07 9.6360332e-07)
(0.0027492926 9.6019453e-07 9.5144788e-07)
(0.0027388207 1.0080058e-06 9.3926658e-07)
(0.0027285887 1.0528508e-06 9.2746515e-07)
(0.0027185878 1.0958654e-06 9.1582904e-07)
(0.0027088089 1.1374988e-06 9.0425334e-07)
(0.0026992438 1.1777669e-06 8.927602e-07)
(0.0026898847 1.2166577e-06 8.8136637e-07)
(0.0026807244 1.2541699e-06 8.7008006e-07)
(0.0026717559 1.2903131e-06 8.589062e-07)
(0.0026629726 1.3251069e-06 8.4785206e-07)
(0.0026543682 1.358574e-06 8.3692187e-07)
(0.0026459367 1.3907389e-06 8.2612104e-07)
(0.0026376723 1.4216349e-06 8.1545269e-07)
(0.0026295698 1.4512899e-06 8.0492019e-07)
(0.0026216238 1.4797318e-06 7.9452277e-07)
(0.0026138294 1.5069903e-06 7.8426267e-07)
(0.002606182 1.5330916e-06 7.7414051e-07)
(0.0025986769 1.5580627e-06 7.6415174e-07)
(0.0025913099 1.5819204e-06 7.5429439e-07)
(0.0025840769 1.6046792e-06 7.4456469e-07)
(0.0025769739 1.6263486e-06 7.349522e-07)
(0.0025699972 1.6469203e-06 7.254479e-07)