/*--------------------------------*- C++ -*----------------------------------*\
  =========                 |
  \\      /  F ield         | OpenFOAM: The Open Source CFD Toolbox
   \\    /   O peration     | Website:  https://openfoam.org
    \\  /    A nd           | Version:  7
     \\/     M anipulation  |
\*---------------------------------------------------------------------------*/
FoamFile
{
    version     2.0;
    format      ascii;
    class       surfaceScalarField;
    location    "200/water";
    object      phi;
}
// * * * * * * * * * * * * * * * * * * * * * * * * * * * * * * * * * * * * * //

dimensions      [1 0 -1 0 0 0 0];

internalField   nonuniform List<scalar> 
156660
(
9.905724e-05
6.0010402e-06
6.0528092e-06
8.6847497e-05
6.0555113e-06
6.1542307e-06
7.5687891e-05
5.5111363e-06
5.6484701e-06
6.5441704e-05
5.0404181e-06
5.2057689e-06
5.6267661e-05
4.4956436e-06
4.6783991e-06
4.8318019e-05
3.8797648e-06
4.0698777e-06
4.1624776e-05
3.2524448e-06
3.4407981e-06
3.6124897e-05
2.660462e-06
2.839417e-06
3.1692235e-05
2.1345126e-06
2.2981489e-06
2.8162841e-05
1.6926975e-06
1.8366964e-06
2.5361437e-05
1.3399933e-06
1.4614113e-06
2.3124664e-05
1.0698477e-06
1.1669256e-06
2.1315127e-05
8.6875418e-07
9.4078224e-07
1.9825714e-05
7.2110064e-07
7.6831271e-07
1.8577278e-05
6.1248245e-07
6.3595307e-07
1.7513255e-05
5.3125219e-07
5.3277149e-07
1.6593744e-05
4.6879725e-07
4.5071349e-07
1.5790433e-05
4.1913718e-07
3.8417389e-07
1.5082784e-05
3.7829071e-07
3.2935849e-07
1.4455417e-05
3.4367127e-07
2.8369565e-07
1.3896409e-05
3.1361408e-07
2.4539334e-07
1.339622e-05
2.870445e-07
2.1314452e-07
1.2947015e-05
2.6326031e-07
1.8594511e-07
1.2542237e-05
2.4179366e-07
1.6298459e-07
1.2176318e-05
2.2232207e-07
1.4359689e-07
1.1844484e-05
2.0461479e-07
1.272188e-07
1.1542609e-05
1.8849496e-07
1.1337974e-07
1.1267116e-05
1.7381574e-07
1.0167796e-07
1.1014892e-05
1.6046271e-07
9.176085e-08
1.0783252e-05
1.4833967e-07
8.3300611e-08
1.0569851e-05
1.3734905e-07
7.6052153e-08
1.0372614e-05
1.2738862e-07
6.9848345e-08
1.0189731e-05
1.1836809e-07
6.4514866e-08
1.001963e-05
1.1020448e-07
5.989664e-08
9.8609388e-06
1.0281921e-07
5.5871659e-08
9.7124595e-06
9.6137958e-08
5.2341359e-08
9.5731439e-06
9.0091164e-08
4.9224353e-08
9.4420759e-06
8.4614444e-08
4.6453573e-08
9.3184531e-06
7.9648674e-08
4.3974115e-08
9.2015723e-06
7.5139704e-08
4.1741069e-08
9.0908166e-06
7.103816e-08
3.9717568e-08
8.9856432e-06
6.7301137e-08
3.7872295e-08
8.8855708e-06
6.3894244e-08
3.6178147e-08
8.7901757e-06
6.078008e-08
3.4614908e-08
8.6990829e-06
5.7926158e-08
3.316668e-08
8.6119591e-06
5.5303718e-08
3.1820148e-08
8.5285072e-06
5.2887443e-08
3.0564404e-08
8.4484619e-06
5.0655067e-08
2.9390276e-08
8.3715848e-06
4.8587039e-08
2.8290018e-08
8.2976614e-06
4.6666191e-08
2.7257197e-08
8.2264975e-06
4.4877469e-08
2.628641e-08
8.1579202e-06
4.3208782e-08
2.5368527e-08
8.0917731e-06
4.1649053e-08
2.4498031e-08
8.0279108e-06
4.018699e-08
2.367535e-08
7.9662006e-06
3.8812683e-08
2.2897522e-08
7.9065219e-06
3.751839e-08
2.2160229e-08
7.8487639e-06
3.6297866e-08
2.1460169e-08
7.7928242e-06
3.5145171e-08
2.0794576e-08
7.7386084e-06
3.405466e-08
2.0161154e-08
7.6860293e-06
3.3021353e-08
1.9557687e-08
7.6350062e-06
3.204079e-08
1.8982251e-08
7.5854641e-06
3.1109052e-08
1.8433052e-08
7.537333e-06
3.0222614e-08
1.7908482e-08
7.4905478e-06
2.9378235e-08
1.7406988e-08
7.4450476e-06
2.8573003e-08
1.6927217e-08
7.4007756e-06
2.7804223e-08
1.6467796e-08
7.3576783e-06
2.7069589e-08
1.6027647e-08
7.3157056e-06
2.6367051e-08
1.5605625e-08
7.2748103e-06
2.5694645e-08
1.5200675e-08
7.2349479e-06
2.5050562e-08
1.4811813e-08
7.1960766e-06
2.4433076e-08
1.4438189e-08
7.1581571e-06
2.3840676e-08
1.4078947e-08
7.1211518e-06
2.3271913e-08
1.373328e-08
7.0850258e-06
2.2725512e-08
1.3400513e-08
7.0497457e-06
2.2200207e-08
1.3079965e-08
7.0152798e-06
2.1694922e-08
1.2770868e-08
6.9815985e-06
2.1208582e-08
1.247276e-08
6.9486733e-06
2.0740231e-08
1.2184934e-08
6.9164776e-06
2.0288998e-08
1.1906802e-08
6.8849857e-06
1.9853945e-08
1.1637823e-08
6.8541739e-06
1.9434364e-08
1.1377448e-08
6.8240194e-06
1.9029458e-08
1.1125115e-08
6.7945006e-06
1.8638481e-08
1.088026e-08
6.7655975e-06
1.8260751e-08
1.0642329e-08
6.7372912e-06
1.7895569e-08
1.0410758e-08
6.7095641e-06
1.7542104e-08
1.0185092e-08
6.6823996e-06
1.719965e-08
9.9648618e-09
6.6557825e-06
1.6867256e-08
9.7498102e-09
6.6296983e-06
1.6544117e-08
9.5399872e-09
6.6041331e-06
1.6229232e-08
9.3359779e-09
6.5790714e-06
1.5921991e-08
9.1397004e-09
6.554494e-06
1.5622326e-08
8.955101e-09
6.5303708e-06
1.5332542e-08
8.7906633e-09
6.5066467e-06
1.5060452e-08
8.6636167e-09
6.4832094e-06
1.4827776e-08
8.6095014e-09
6.4598103e-06
1.4693076e-08
8.706021e-09
6.4358388e-06
1.482642e-08
9.1451518e-09
6.4096303e-06
1.5741768e-08
1.0466756e-08
6.3782855e-06
1.8026576e-08
1.3318235e-08
3.2300215e-08
2.7923542e-08
0.00010646494
4.1872385e-06
6.4599816e-06
0.0001002019
5.695418e-06
6.6231353e-06
9.3659588e-05
5.7790389e-06
6.2744098e-06
8.7011589e-05
5.6514782e-06
6.0369387e-06
8.0422927e-05
5.3669119e-06
5.7173941e-06
7.4094022e-05
4.9022832e-06
5.3063862e-06
6.8167026e-05
4.3278135e-06
4.8516273e-06
6.2722565e-05
3.717891e-06
4.387032e-06
5.7799049e-05
3.1243144e-06
3.9337145e-06
5.3403345e-05
2.5820689e-06
3.5063329e-06
4.9517402e-05
2.1121062e-06
3.1138299e-06
4.6105482e-05
1.7220197e-06
2.7597473e-06
4.3121558e-05
1.4089355e-06
2.4437429e-06
4.0515558e-05
1.1637552e-06
2.163346e-06
3.8237948e-05
9.7485851e-07
1.9152336e-06
3.6242683e-05
8.3055976e-07
1.6959573e-06
3.4488759e-05
7.2043697e-07
1.5022849e-06
3.2940716e-05
6.3586297e-07
1.3313172e-06
3.1568463e-05
5.7005001e-07
1.180493e-06
3.0346733e-05
5.1784897e-07
1.0475522e-06
2.9254398e-05
4.7545954e-07
9.3049033e-07
2.8273782e-05
4.4013956e-07
8.2752023e-07
2.7390054e-05
4.0994893e-07
7.370401e-07
2.6590699e-05
3.8353955e-07
6.5760859e-07
2.5865102e-05
3.5998889e-07
5.8793072e-07
2.5204198e-05
3.3867632e-07
5.2684262e-07
2.4600205e-05
3.1918359e-07
4.7330349e-07
2.4046429e-05
3.0120195e-07
4.2639017e-07
2.3537073e-05
2.8455207e-07
3.8526716e-07
2.3067119e-05
2.69111e-07
3.4918238e-07
2.2632208e-05
2.5478165e-07
3.1747785e-07
2.2228528e-05
2.4147381e-07
2.8959531e-07
2.1852744e-05
2.2911073e-07
2.6504124e-07
2.1501947e-05
2.1762893e-07
2.4337256e-07
2.1173591e-05
2.0696951e-07
2.2420572e-07
2.0865444e-05
1.9707568e-07
2.0720869e-07
2.0575549e-05
1.8789254e-07
1.9209398e-07
2.0302183e-05
1.7936723e-07
1.7861344e-07
2.0043829e-05
1.7144907e-07
1.6655324e-07
1.979915e-05
1.6408983e-07
1.5572943e-07
1.956696e-05
1.5724385e-07
1.4598402e-07
1.934621e-05
1.5086896e-07
1.3718217e-07
1.9135969e-05
1.4492651e-07
1.2920881e-07
1.8935407e-05
1.3937907e-07
1.2196305e-07
1.8743783e-05
1.3419232e-07
1.1535762e-07
1.8560435e-05
1.2933513e-07
1.0931727e-07
1.8384766e-05
1.247791e-07
1.0377715e-07
1.8216241e-05
1.2049854e-07
9.8681294e-08
1.8054377e-05
1.1647013e-07
9.3981325e-08
1.7898734e-05
1.1267293e-07
8.9635403e-08
1.7748917e-05
1.090882e-07
8.5606993e-08
1.7604563e-05
1.0570006e-07
8.1862403e-08
1.7465345e-05
1.0249342e-07
7.8373271e-08
1.7330962e-05
9.9452982e-08
7.5116992e-08
1.7201138e-05
9.6564405e-08
7.2072729e-08
1.7075619e-05
9.3816655e-08
6.9221174e-08
1.695417e-05
9.1201105e-08
6.6545127e-08
1.6836577e-05
8.8709107e-08
6.402954e-08
1.6722638e-05
8.633197e-08
6.1661036e-08
1.661217e-05
8.406176e-08
5.9427673e-08
1.6505001e-05
8.1891515e-08
5.7318808e-08
1.640097e-05
7.981495e-08
5.5324818e-08
1.6299929e-05
7.7826137e-08
5.3437107e-08
1.620174e-05
7.5919872e-08
5.1647892e-08
1.6106272e-05
7.409102e-08
4.9950138e-08
1.6013404e-05
7.2334974e-08
4.8337423e-08
1.5923022e-05
7.06477e-08
4.6803852e-08
1.5835019e-05
6.9025728e-08
4.5344246e-08
1.5749294e-05
6.7465545e-08
4.395369e-08
1.5665753e-05
6.5963799e-08
4.2627696e-08
1.5584307e-05
6.4517373e-08
4.1362182e-08
1.5504871e-05
6.3123413e-08
4.0153359e-08
1.5427365e-05
6.1779321e-08
3.8997785e-08
1.5351716e-05
6.0482545e-08
3.7892265e-08
1.5277852e-05
5.9230843e-08
3.6833838e-08
1.5205705e-05
5.8021984e-08
3.5819741e-08
1.5135212e-05
5.6854023e-08
3.4847347e-08
1.5066313e-05
5.5724991e-08
3.3914332e-08
1.499895e-05
5.4633124e-08
3.3018426e-08
1.493307e-05
5.3576722e-08
3.2157429e-08
1.4868621e-05
5.2554162e-08
3.1329414e-08
1.4805554e-05
5.1563933e-08
3.053245e-08
1.4743823e-05
5.0604484e-08
2.9764696e-08
1.4683386e-05
4.9674263e-08
2.9024378e-08
1.4624199e-05
4.8771815e-08
2.8309886e-08
1.4566226e-05
4.7895463e-08
2.7619569e-08
1.4509431e-05
4.70435e-08
2.6951964e-08
1.4453778e-05
4.6214107e-08
2.6305733e-08
1.4399237e-05
4.540539e-08
2.5679887e-08
1.4345777e-05
4.4615691e-08
2.5073747e-08
1.4293367e-05
4.3844222e-08
2.4487718e-08
1.4241972e-05
4.3092844e-08
2.3923757e-08
1.4191548e-05
4.2369894e-08
2.3387142e-08
1.4142019e-05
4.1699296e-08
2.2889628e-08
1.4093249e-05
4.1141645e-08
2.2456617e-08
1.4044951e-05
4.0844672e-08
2.2146519e-08
1.3996485e-05
4.1169217e-08
2.2123027e-08
1.3946229e-05
4.3012313e-08
2.2985382e-08
1.389015e-05
4.8540264e-08
2.5565824e-08
6.3281556e-08
5.000087e-08
0.00010603565
2.7876425e-06
6.4750379e-06
0.00010074799
4.4145413e-06
6.5685292e-06
9.5493515e-05
4.8594028e-06
6.1741158e-06
9.0256432e-05
4.930369e-06
5.9581921e-06
8.5101366e-05
4.8311767e-06
5.6908011e-06
8.0102875e-05
4.5561761e-06
5.3445981e-06
7.5322251e-05
4.1469521e-06
4.9614853e-06
7.0803266e-05
3.6678926e-06
4.5689837e-06
6.6576264e-05
3.1701903e-06
4.1811254e-06
6.2660725e-05
2.6900109e-06
3.8075975e-06
5.9065443e-05
2.2519318e-06
3.4554566e-06
5.5788936e-05
1.8697304e-06
3.1287958e-06
5.2820978e-05
1.5477473e-06
2.8291458e-06
5.014479e-05
1.2836302e-06
2.5563139e-06
4.7739304e-05
1.07123e-06
2.3091141e-06
4.5581183e-05
9.0281506e-07
2.0858661e-06
4.3646423e-05
7.7048779e-07
1.884709e-06
4.1911533e-05
6.6697375e-07
1.7037793e-06
4.0354306e-05
5.8598198e-07
1.5412951e-06
3.8954268e-05
5.2230223e-07
1.3955849e-06
3.769288e-05
4.7175605e-07
1.2650911e-06
3.6553576e-05
4.3107983e-07
1.1483634e-06
3.552169e-05
3.9778205e-07
1.0440533e-06
3.4584322e-05
3.6999884e-07
9.509083e-07
3.3730181e-05
3.4635983e-07
8.6777018e-07
3.2949411e-05
3.2587759e-07
7.9356872e-07
3.2233419e-05
3.078405e-07
7.2733486e-07
3.1574711e-05
2.9172985e-07
6.6818102e-07
3.0966769e-05
2.7719267e-07
6.1530127e-07
3.0403928e-05
2.6398103e-07
5.6797019e-07
2.9881258e-05
2.5190847e-07
5.2554315e-07
2.9394455e-05
2.4082713e-07
4.8744999e-07
2.8939761e-05
2.3062162e-07
4.5318327e-07
2.8513895e-05
2.2120155e-07
4.2229387e-07
2.8113985e-05
2.1249196e-07
3.9438675e-07
2.7737518e-05
2.0442795e-07
3.6911489e-07
2.7382285e-05
1.9695192e-07
3.4617386e-07
2.7046344e-05
1.9001177e-07
3.252968e-07
2.6727982e-05
1.8355996e-07
3.0625043e-07
2.6425689e-05
1.7755275e-07
2.8883085e-07
2.6138123e-05
1.7195001e-07
2.7285984e-07
2.5864094e-05
1.6671515e-07
2.5818183e-07
2.5602546e-05
1.6181453e-07
2.4466091e-07
2.535253e-05
1.5721709e-07
2.3217764e-07
2.5113201e-05
1.5289443e-07
2.2062726e-07
2.4883797e-05
1.4882094e-07
2.0991772e-07
2.4663634e-05
1.4497367e-07
1.9996811e-07
2.4452094e-05
1.4133184e-07
1.9070707e-07
2.4248615e-05
1.3787697e-07
1.8207153e-07
2.405269e-05
1.3459267e-07
1.7400572e-07
2.3863854e-05
1.3146461e-07
1.6645989e-07
2.3681684e-05
1.2848059e-07
1.5938927e-07
2.3505794e-05
1.2562918e-07
1.5275414e-07
2.3335829e-05
1.2289871e-07
1.465197e-07
2.3171462e-05
1.2027634e-07
1.4065459e-07
2.3012394e-05
1.1775474e-07
1.351302e-07
2.2858345e-05
1.1532972e-07
1.2992046e-07
2.2709057e-05
1.129954e-07
1.2500174e-07
2.2564291e-05
1.1074519e-07
1.2035287e-07
2.2423824e-05
1.0857347e-07
1.1595458e-07
2.2287451e-05
1.0647551e-07
1.1178924e-07
2.2154978e-05
1.0444703e-07
1.078408e-07
2.2026226e-05
1.024842e-07
1.0409459e-07
2.1901025e-05
1.0058349e-07
1.0053715e-07
2.1779218e-05
9.8741531e-08
9.7156178e-08
2.1660658e-05
9.6954917e-08
9.3940297e-08
2.1545205e-05
9.5221259e-08
9.0879049e-08
2.1432729e-05
9.353884e-08
8.7962806e-08
2.1323107e-05
9.1905312e-08
8.5182595e-08
2.1216222e-05
9.0318511e-08
8.2530192e-08
2.1111965e-05
8.8776404e-08
7.9997918e-08
2.1010233e-05
8.7277124e-08
7.7578673e-08
2.0910927e-05
8.5818965e-08
7.5265869e-08
2.0813956e-05
8.4400316e-08
7.3053418e-08
2.0719232e-05
8.3019694e-08
7.0935631e-08
2.0626671e-05
8.1675651e-08
6.8907203e-08
2.0536195e-05
8.036682e-08
6.69631e-08
2.0447729e-05
7.9091959e-08
6.509876e-08
2.0361203e-05
7.7849844e-08
6.3309763e-08
2.0276548e-05
7.6639198e-08
6.1592036e-08
2.0193702e-05
7.5458987e-08
5.9941739e-08
2.0112602e-05
7.4307962e-08
5.8355239e-08
2.0033193e-05
7.3184916e-08
5.6829072e-08
1.9955419e-05
7.2088593e-08
5.5359982e-08
1.9879228e-05
7.1017616e-08
5.3944849e-08
1.9804572e-05
6.9970444e-08
5.2580719e-08
1.9731406e-05
6.894528e-08
5.1264801e-08
1.9659685e-05
6.7940102e-08
4.9994377e-08
1.9589371e-05
6.6953033e-08
4.876706e-08
1.9520423e-05
6.5982366e-08
4.7580526e-08
1.9452807e-05
6.5028044e-08
4.643309e-08
1.9386482e-05
6.4094114e-08
4.5323744e-08
1.9321404e-05
6.3194677e-08
4.4253079e-08
1.9257511e-05
6.2366342e-08
4.3225198e-08
1.9194705e-05
6.1695162e-08
4.2253124e-08
1.9132798e-05
6.1374089e-08
4.1377397e-08
1.9071394e-05
6.1822472e-08
4.0750668e-08
1.9009424e-05
6.3924757e-08
4.1057603e-08
1.8944661e-05
6.9304672e-08
4.3998833e-08
7.917094e-08
7.4661554e-08
0.0001054937
1.9169871e-06
6.4880406e-06
0.00010005365
3.2729596e-06
6.5816334e-06
9.4926077e-05
3.8288995e-06
6.1580776e-06
8.9946373e-05
3.9838109e-06
5.9262629e-06
8.5163276e-05
3.9595077e-06
5.6547657e-06
8.0619137e-05
3.7899369e-06
5.3103784e-06
7.6329462e-05
3.5015547e-06
4.9350725e-06
7.230016e-05
3.1412013e-06
4.5559928e-06
6.8534206e-05
2.7514802e-06
4.1846641e-06
6.5032983e-05
2.3633492e-06
3.8278852e-06
6.1795789e-05
1.9984143e-06
3.490711e-06
5.8818843e-05
1.670376e-06
3.176301e-06
5.6094718e-05
1.3858295e-06
2.8860429e-06
5.3612488e-05
1.1457945e-06
2.6200649e-06
5.1358373e-05
9.4764119e-07
2.3777043e-06
4.9316593e-05
7.8676785e-07
2.1578272e-06
4.7470246e-05
6.5779545e-07
1.9590391e-06
4.5802069e-05
5.553254e-07
1.7798252e-06
4.4295042e-05
4.743712e-07
1.6186378e-06
4.293283e-05
4.105667e-07
1.473948e-06
4.1700078e-05
3.6023238e-07
1.3442759e-06
4.0582591e-05
3.2035742e-07
1.2282094e-06
3.956742e-05
2.8853738e-07
1.1244154e-06
3.8642881e-05
2.6289066e-07
1.0316467e-06
3.7798527e-05
2.4196987e-07
9.4874404e-07
3.7025076e-05
2.2467705e-07
8.7465174e-07
3.6314324e-05
2.1018902e-07
8.0840411e-07
3.5659057e-05
1.9788608e-07
7.4911041e-07
3.5052961e-05
1.8731586e-07
6.959728e-07
3.4490519e-05
1.7814873e-07
6.4827381e-07
3.3966922e-05
1.701317e-07
6.053744e-07
3.3477973e-05
1.6306725e-07
5.6670866e-07
3.3020016e-05
1.5680301e-07
5.3177544e-07
3.2589865e-05
1.5122057e-07
5.0013243e-07
3.218474e-05
1.4622561e-07
4.7139137e-07
3.1802215e-05
1.4174072e-07
4.4521234e-07
3.1440168e-05
1.3770094e-07
4.2129813e-07
3.1096739e-05
1.3405093e-07
3.9938923e-07
3.0770297e-05
1.3074295e-07
3.7925953e-07
3.0459402e-05
1.2773518e-07
3.6071196e-07
3.0162787e-05
1.2499091e-07
3.4357476e-07
2.9879325e-05
1.2247786e-07
3.276985e-07
2.960802e-05
1.2016731e-07
3.1295271e-07
2.934798e-05
1.1803383e-07
2.9922352e-07
2.9098408e-05
1.1605463e-07
2.8641137e-07
2.885859e-05
1.1420982e-07
2.7442905e-07
2.8627882e-05
1.1248188e-07
2.6320001e-07
2.8405701e-05
1.1085559e-07
2.5265685e-07
2.819152e-05
1.0931757e-07
2.4274023e-07
2.7984859e-05
1.0785648e-07
2.3339756e-07
2.7785279e-05
1.0646279e-07
2.2458215e-07
2.7592379e-05
1.0512872e-07
2.1625217e-07
2.740579e-05
1.0384736e-07
2.0837034e-07
2.7225174e-05
1.0261118e-07
2.0090359e-07
2.705022e-05
1.0140748e-07
1.9382257e-07
2.6880641e-05
1.0023386e-07
1.8710042e-07
2.6716166e-05
9.9092373e-08
1.8071221e-07
2.6556546e-05
9.798002e-08
1.7463555e-07
2.6401548e-05
9.6892547e-08
1.6885015e-07
2.6250957e-05
9.5827121e-08
1.6333743e-07
2.610457e-05
9.4781723e-08
1.5808044e-07
2.5962199e-05
9.3754729e-08
1.5306359e-07
2.5823666e-05
9.2744874e-08
1.4827261e-07
2.5688804e-05
9.1751012e-08
1.4369413e-07
2.5557458e-05
9.077177e-08
1.3931601e-07
2.5429481e-05
8.9805163e-08
1.3512693e-07
2.5304734e-05
8.8851493e-08
1.3111643e-07
2.5183087e-05
8.7911208e-08
1.2727466e-07
2.5064416e-05
8.698389e-08
1.2359243e-07
2.4948604e-05
8.6068876e-08
1.2006121e-07
2.4835542e-05
8.5165766e-08
1.1667304e-07
2.4725124e-05
8.4274321e-08
1.1342051e-07
2.4617252e-05
8.3394304e-08
1.1029658e-07
2.4511833e-05
8.2525457e-08
1.0729479e-07
2.4408775e-05
8.1667737e-08
1.0440898e-07
2.4307997e-05
8.0820964e-08
1.0163341e-07
2.4209416e-05
7.9985026e-08
9.8962634e-08
2.4112956e-05
7.9159753e-08
9.6391566e-08
2.4018546e-05
7.8345028e-08
9.3915288e-08
2.3926115e-05
7.7540687e-08
9.1529313e-08
2.3835598e-05
7.6746526e-08
8.922926e-08
2.3746933e-05
7.5962293e-08
8.701104e-08
2.366006e-05
7.5187629e-08
8.4870708e-08
2.3574922e-05
7.4421947e-08
8.2804552e-08
2.3491466e-05
7.3664616e-08
8.0808924e-08
2.3409641e-05
7.2914616e-08
7.888036e-08
2.33294e-05
7.217071e-08
7.7015486e-08
2.3250698e-05
7.1431345e-08
7.5211017e-08
2.3173493e-05
7.069485e-08
7.3463605e-08
2.3097745e-05
6.99602e-08
7.1770076e-08
2.3023418e-05
6.9227992e-08
7.0126998e-08
2.2950477e-05
6.8503521e-08
6.8531172e-08
2.2878889e-05
6.7802871e-08
6.6979706e-08
2.2808619e-05
6.7165065e-08
6.5471543e-08
2.2739625e-05
6.6675247e-08
6.4013326e-08
2.267185e-05
6.6507104e-08
6.2642294e-08
2.2605149e-05
6.699076e-08
6.1532358e-08
2.2538888e-05
6.8686063e-08
6.1499894e-08
2.2471121e-05
7.2227008e-08
6.4845123e-08
7.6722869e-08
9.8461321e-08
0.0001051979
1.3340884e-06
6.4961221e-06
9.9496561e-05
2.3731022e-06
6.6011947e-06
9.4262459e-05
2.9019224e-06
6.1610799e-06
8.9251186e-05
3.0856641e-06
5.9094196e-06
8.4493498e-05
3.0947347e-06
5.6224614e-06
8.0033635e-05
2.9846656e-06
5.265134e-06
7.5876907e-05
2.7790155e-06
4.8792667e-06
7.2014635e-05
2.5106844e-06
4.4927895e-06
6.8436293e-05
2.2128728e-06
4.1169489e-06
6.5131387e-05
1.9107259e-06
3.7575291e-06
6.208941e-05
1.6217321e-06
3.4186596e-06
5.9299432e-05
1.3573877e-06
3.1029661e-06
5.6749589e-05
1.1240344e-06
2.8116386e-06
5.4426788e-05
9.2377945e-07
2.5448157e-06
5.2316754e-05
7.55728e-07
2.3019466e-06
5.0404313e-05
6.1717855e-07
2.0820302e-06
4.8673788e-05
5.0454349e-07
1.8837772e-06
4.7109414e-05
4.139718e-07
1.7057274e-06
4.5695713e-05
3.417365e-07
1.5463363e-06
4.4417792e-05
2.8445147e-07
1.4040359e-06
4.3261575e-05
2.3917113e-07
1.277278e-06
4.2213953e-05
2.0341503e-07
1.1645652e-06
4.1262871e-05
1.751474e-07
1.0644719e-06
4.039737e-05
1.5273233e-07
9.7565899e-07
3.9607583e-05
1.3487529e-07
8.9688145e-07
3.8884688e-05
1.2055567e-07
8.2701641e-07
3.8220848e-05
1.0901092e-07
7.6501855e-07
3.7609155e-05
9.9633847e-08
7.0994487e-07
3.7043542e-05
9.1977471e-08
6.6095089e-07
3.6518702e-05
8.5705824e-08
6.1728288e-07
3.6030009e-05
8.0552378e-08
5.7827309e-07
3.5573433e-05
7.6308262e-08
5.4333414e-07
3.5145475e-05
7.2811284e-08
5.1195029e-07
3.4743091e-05
6.9934116e-08
4.836702e-07
3.4363641e-05
6.7575436e-08
4.5810067e-07
3.4004828e-05
6.5652894e-08
4.3489998e-07
3.3664659e-05
6.4098605e-08
4.1377211e-07
3.3341393e-05
6.2855924e-08
3.9446093e-07
3.3033513e-05
6.1877021e-08
3.7674526e-07
3.2739693e-05
6.11211e-08
3.6043423e-07
3.2458768e-05
6.0553086e-08
3.4536328e-07
3.2189712e-05
6.014268e-08
3.3139058e-07
3.1931622e-05
5.9863666e-08
3.183938e-07
3.1683696e-05
5.9693132e-08
3.0626735e-07
3.1445219e-05
5.9611199e-08
2.9492011e-07
3.1215555e-05
5.9600598e-08
2.8427314e-07
3.0994132e-05
5.9646521e-08
2.7425809e-07
3.0780436e-05
5.9736141e-08
2.6481537e-07
3.0574002e-05
5.9858614e-08
2.5589333e-07
3.0374407e-05
6.000493e-08
2.4744661e-07
3.0181267e-05
6.0167659e-08
2.3943547e-07
2.9994229e-05
6.0341245e-08
2.3182487e-07
2.9812971e-05
6.0521787e-08
2.2458372e-07
2.9637193e-05
6.0704471e-08
2.1768455e-07
2.9466629e-05
6.0867299e-08
2.1110457e-07
2.9301024e-05
6.1017013e-08
2.048218e-07
2.914014e-05
6.1160882e-08
1.9881568e-07
2.8983756e-05
6.1294944e-08
1.9306837e-07
2.8831669e-05
6.1415459e-08
1.8756388e-07
2.8683688e-05
6.1520983e-08
1.8228764e-07
2.8539633e-05
6.1610571e-08
1.7722629e-07
2.8399336e-05
6.1683817e-08
1.7236782e-07
2.8262639e-05
6.1740515e-08
1.6770089e-07
2.8129394e-05
6.1780708e-08
1.6321519e-07
2.7999461e-05
6.1803885e-08
1.5890121e-07
2.7872709e-05
6.1807362e-08
1.5475037e-07
2.7749012e-05
6.1793576e-08
1.5075443e-07
2.7628253e-05
6.1764824e-08
1.4690558e-07
2.7510319e-05
6.1720991e-08
1.4319663e-07
2.7395105e-05
6.1662134e-08
1.3962086e-07
2.728251e-05
6.1588655e-08
1.3617205e-07
2.7172439e-05
6.1501088e-08
1.3284426e-07
2.7064802e-05
6.1399991e-08
1.2963196e-07
2.6959511e-05
6.1285938e-08
1.2652992e-07
2.6856486e-05
6.1159481e-08
1.2353323e-07
2.6755649e-05
6.102131e-08
1.206373e-07
2.6656924e-05
6.0871834e-08
1.1783761e-07
2.6560242e-05
6.0711711e-08
1.1513012e-07
2.6465535e-05
6.0541356e-08
1.1251075e-07
2.6372738e-05
6.0361321e-08
1.0997579e-07
2.6281791e-05
6.0171936e-08
1.0752159e-07
2.6192636e-05
5.9973534e-08
1.0514469e-07
2.6105215e-05
5.9766296e-08
1.0284182e-07
2.6019477e-05
5.9550258e-08
1.0060973e-07
2.5935371e-05
5.9325138e-08
9.8445292e-08
2.585285e-05
5.9090491e-08
9.634536e-08
2.5771868e-05
5.8845488e-08
9.4306924e-08
2.5692384e-05
5.8589018e-08
9.2326746e-08
2.5614357e-05
5.8319803e-08
9.0401431e-08
2.5537753e-05
5.8037057e-08
8.8527367e-08
2.5462539e-05
5.7741626e-08
8.6700217e-08
2.5388689e-05
5.7438395e-08
8.4915157e-08
2.5316184e-05
5.7141418e-08
8.3166636e-08
2.5245017e-05
5.6882534e-08
8.1449626e-08
2.51752e-05
5.6726036e-08
7.9765803e-08
2.510677e-05
5.678791e-08
7.8149178e-08
2.5039729e-05
5.7251599e-08
7.6780976e-08
2.4973573e-05
5.8330946e-08
7.6510202e-08
2.4906079e-05
5.9989502e-08
7.9732162e-08
6.0715039e-08
1.1287826e-07
0.00010503672
9.0789372e-07
6.5005614e-06
9.9140653e-05
1.6524914e-06
6.6166801e-06
9.3788329e-05
2.0825241e-06
6.1717217e-06
8.8708526e-05
2.2549373e-06
5.91053e-06
8.3909682e-05
2.2784039e-06
5.6151748e-06
7.9437109e-05
2.2074821e-06
5.2497564e-06
7.5296201e-05
2.0645348e-06
4.8553893e-06
7.1474034e-05
1.8722542e-06
4.4605969e-06
6.7955013e-05
1.6547667e-06
4.0771269e-06
6.4723621e-05
1.4313505e-06
3.7107669e-06
6.1764423e-05
1.2154297e-06
3.3655007e-06
5.9062056e-05
1.015864e-06
3.0438911e-06
5.6601108e-05
8.3782739e-07
2.7471548e-06
5.4365944e-05
6.8344647e-07
2.475497e-06
5.2340648e-05
5.5258528e-07
2.2284383e-06
5.0509125e-05
4.436655e-07
2.0050361e-06
4.8855299e-05
3.5433459e-07
1.8040352e-06
4.7363353e-05
2.8193595e-07
1.6239821e-06
4.6017963e-05
2.2381349e-07
1.4633127e-06
4.4804502e-05
1.7749385e-07
1.3204181e-06
4.3709199e-05
1.4078092e-07
1.1936935e-06
4.2719248e-05
1.1179157e-07
1.081575e-06
4.1822875e-05
8.8954544e-08
9.8256585e-07
4.1009364e-05
7.0987994e-08
8.9525472e-07
4.0269054e-05
5.6861823e-08
8.1832383e-07
3.9593306e-05
4.5719124e-08
7.5058478e-07
3.8974405e-05
3.6977874e-08
6.9093436e-07
3.8405585e-05
3.0067386e-08
6.3838632e-07
3.7880869e-05
2.4650826e-08
5.9204241e-07
3.7395029e-05
2.043996e-08
5.5110606e-07
3.6943514e-05
1.7190288e-08
5.1487717e-07
3.6522366e-05
1.4716728e-08
4.827396e-07
3.6128148e-05
1.2874766e-08
4.5415391e-07
3.5757883e-05
1.1549901e-08
4.2864946e-07
3.5408991e-05
1.0650782e-08
4.0581706e-07
3.5079238e-05
1.0103617e-08
3.8530228e-07
3.4766689e-05
9.8482716e-09
3.6679876e-07
3.4469668e-05
9.8351218e-09
3.5004235e-07
3.4186716e-05
1.002291e-08
3.348055e-07
3.3916567e-05
1.0377052e-08
3.2089287e-07
3.3658116e-05
1.0868076e-08
3.081366e-07
3.3410395e-05
1.1470953e-08
2.9639285e-07
3.3172556e-05
1.2164241e-08
2.8553829e-07
3.2943853e-05
1.2929296e-08
2.7546719e-07
3.2723625e-05
1.3750163e-08
2.6608893e-07
3.2511286e-05
1.4613047e-08
2.5732572e-07
3.2306316e-05
1.5506213e-08
2.4911068e-07
3.2108246e-05
1.641956e-08
2.4138624e-07
3.1916658e-05
1.7344659e-08
2.3410271e-07
3.1731171e-05
1.8274326e-08
2.2721712e-07
3.1551444e-05
1.9203175e-08
2.2069212e-07
3.1377162e-05
2.0127728e-08
2.1449509e-07
3.1208038e-05
2.1048655e-08
2.0859678e-07
3.10438e-05
2.1972763e-08
2.0297053e-07
3.0884232e-05
2.282785e-08
1.9760737e-07
3.0729103e-05
2.366296e-08
1.9248228e-07
3.05782e-05
2.4490016e-08
1.8757379e-07
3.0431331e-05
2.5296287e-08
1.8286761e-07
3.0288318e-05
2.6078009e-08
1.7835079e-07
3.0148994e-05
2.6834324e-08
1.7401105e-07
3.0013202e-05
2.7564715e-08
1.6983753e-07
2.9880797e-05
2.8268966e-08
1.6582024e-07
2.975164e-05
2.8947426e-08
1.6195014e-07
2.9625601e-05
2.9600749e-08
1.5821896e-07
2.9502557e-05
3.0228554e-08
1.546192e-07
2.9382396e-05
3.0823606e-08
1.5114468e-07
2.9265007e-05
3.1393129e-08
1.4778878e-07
2.9150287e-05
3.1939561e-08
1.4454538e-07
2.9038137e-05
3.2461902e-08
1.4140901e-07
2.8928465e-05
3.296006e-08
1.3837462e-07
2.8821181e-05
3.3434728e-08
1.3543749e-07
2.8716203e-05
3.3886345e-08
1.325933e-07
2.8613449e-05
3.4315556e-08
1.2983787e-07
2.8512845e-05
3.4722869e-08
1.2716735e-07
2.8414317e-05
3.5108988e-08
1.2457813e-07
2.8317797e-05
3.5474455e-08
1.2206682e-07
2.8223219e-05
3.581987e-08
1.1963009e-07
2.813052e-05
3.6145936e-08
1.1726493e-07
2.803964e-05
3.6453065e-08
1.1496839e-07
2.7950522e-05
3.6741863e-08
1.1273771e-07
2.7863111e-05
3.7012836e-08
1.1057026e-07
2.7777354e-05
3.7266238e-08
1.0846344e-07
2.7693204e-05
3.7502481e-08
1.0641476e-07
2.7610611e-05
3.7721591e-08
1.0442177e-07
2.752953e-05
3.7923551e-08
1.0248202e-07
2.744992e-05
3.8107967e-08
1.0059308e-07
2.7371738e-05
3.8274253e-08
9.8752291e-08
2.7294949e-05
3.842151e-08
9.6956886e-08
2.7219516e-05
3.8548704e-08
9.5203617e-08
2.714541e-05
3.8655102e-08
9.3488629e-08
2.7072603e-05
3.8741117e-08
9.180693e-08
2.7001079e-05
3.8810219e-08
9.0152305e-08
2.6930832e-05
3.8872101e-08
8.851657e-08
2.6861877e-05
3.8947382e-08
8.6890517e-08
2.679426e-05
3.9073502e-08
8.5269161e-08
2.6728065e-05
3.9306982e-08
8.3675946e-08
2.6663337e-05
3.9708361e-08
8.227116e-08
2.659956e-05
4.0272036e-08
8.1836176e-08
2.6534295e-05
4.0698058e-08
8.4555721e-08
3.962088e-08
1.1507133e-07
0.00010494757
5.6811083e-07
6.5033076e-06
9.8925416e-05
1.0462983e-06
6.6283516e-06
9.3480449e-05
1.3439845e-06
6.1835066e-06
8.8341777e-05
1.4751324e-06
5.9184763e-06
8.3502084e-05
1.4993911e-06
5.6187065e-06
7.9004057e-05
1.4572411e-06
5.2482679e-06
7.4853978e-05
1.3667382e-06
4.8478756e-06
7.1037378e-05
1.2423973e-06
4.4464569e-06
6.7536063e-05
1.0997693e-06
4.0563127e-06
6.4331998e-05
9.5192358e-07
3.683491e-06
6.1407318e-05
8.0805753e-07
3.3320524e-06
5.8744339e-05
6.7422201e-07
3.0046209e-06
5.6325632e-05
5.5404397e-07
2.7024907e-06
5.4133973e-05
4.4916744e-07
2.4259383e-06
5.2152298e-05
3.5972396e-07
2.1745359e-06
5.0363747e-05
2.8484511e-07
1.9473717e-06
4.875178e-05
2.2310005e-07
1.7432015e-06
4.7300339e-05
1.728117e-07
1.5605647e-06
4.5994012e-05
1.3226574e-07
1.3978748e-06
4.4818177e-05
9.9840029e-08
1.2534891e-06
4.3759121e-05
7.4075609e-08
1.1257614e-06
4.2804123e-05
5.3707638e-08
1.0130814e-06
4.1941503e-05
3.767122e-08
9.1390375e-07
4.1160627e-05
2.5096482e-08
8.2676731e-07
4.0451891e-05
1.5294189e-08
7.5030389e-07
3.980679e-05
7.5282174e-09
6.8329172e-07
3.9217543e-05
1.6727643e-09
6.2455202e-07
3.8677513e-05
-3.0330862e-09
5.7313083e-07
3.8180739e-05
-6.64867e-09
5.2807354e-07
3.7722004e-05
-9.3595305e-09
4.8853452e-07
3.7296777e-05
-1.1371817e-08
4.5378924e-07
3.6901112e-05
-1.2818272e-08
4.2319912e-07
3.6531588e-05
-1.3805296e-08
3.9620481e-07
3.6185236e-05
-1.4417476e-08
3.7231875e-07
3.5859491e-05
-1.4721892e-08
3.5111773e-07
3.5552132e-05
-1.4772625e-08
3.3223579e-07
3.5261237e-05
-1.4613897e-08
3.1535728e-07
3.4985143e-05
-1.4282177e-08
3.0021092e-07
3.472241e-05
-1.3807692e-08
2.8656374e-07
3.4471787e-05
-1.3215901e-08
2.742163e-07
3.4232185e-05
-1.2528206e-08
2.6299769e-07
3.4002657e-05
-1.176279e-08
2.5276174e-07
3.3782373e-05
-1.0935224e-08
2.4338339e-07
3.3570606e-05
-1.0058774e-08
2.3475556e-07
3.3366714e-05
-9.1447387e-09
2.2678671e-07
3.3170132e-05
-8.2028488e-09
2.1939835e-07
3.2980356e-05
-7.2412487e-09
2.1252299e-07
3.279694e-05
-6.2669027e-09
2.061028e-07
3.2619482e-05
-5.2855612e-09
2.0008782e-07
3.2447623e-05
-4.3018181e-09
1.9443476e-07
3.228104e-05
-3.3190553e-09
1.8910583e-07
3.2119438e-05
-2.338312e-09
1.8406736e-07
3.1962554e-05
-1.3530486e-09
1.7928647e-07
3.1810075e-05
-2.763152e-10
1.7472764e-07
3.1661878e-05
5.8581011e-10
1.7043903e-07
3.1517732e-05
1.4355904e-09
1.6637296e-07
3.1377429e-05
2.3038242e-09
1.6248958e-07
3.1240792e-05
3.1586474e-09
1.5877484e-07
3.1107656e-05
3.9970048e-09
1.5521716e-07
3.0977867e-05
4.81719e-09
1.5180547e-07
3.0851284e-05
5.6179872e-09
1.485297e-07
3.0727774e-05
6.3990664e-09
1.4538077e-07
3.060721e-05
7.1609156e-09
1.4235056e-07
3.0489473e-05
7.9059187e-09
1.394312e-07
3.037445e-05
8.6357175e-09
1.3661576e-07
3.0262049e-05
9.3206388e-09
1.3390395e-07
3.0152163e-05
9.9938256e-09
1.312857e-07
3.0044697e-05
1.0650395e-08
1.2875514e-07
2.9939564e-05
1.1286767e-08
1.2630828e-07
2.983668e-05
1.1903211e-08
1.2394092e-07
2.9735965e-05
1.2500157e-08
1.2164885e-07
2.9637345e-05
1.3077888e-08
1.1942845e-07
2.9540748e-05
1.3636697e-08
1.1727619e-07
2.9446105e-05
1.4177021e-08
1.1518882e-07
2.9353352e-05
1.4699188e-08
1.1316337e-07
2.9262425e-05
1.5203547e-08
1.1119703e-07
2.9173268e-05
1.5690509e-08
1.0928708e-07
2.9085822e-05
1.6160382e-08
1.0743106e-07
2.9000035e-05
1.6613572e-08
1.0562665e-07
2.8915855e-05
1.7050383e-08
1.0387155e-07
2.8833233e-05
1.7471129e-08
1.0216361e-07
2.8752123e-05
1.787596e-08
1.0050081e-07
2.8672479e-05
1.8265099e-08
9.8881098e-08
2.8594259e-05
1.8638548e-08
9.7302481e-08
2.8517424e-05
1.8996209e-08
9.5762974e-08
2.8441934e-05
1.933781e-08
9.4260356e-08
2.8367753e-05
1.9662787e-08
9.279235e-08
2.8294848e-05
1.9970451e-08
9.1356269e-08
2.8223187e-05
2.0259994e-08
8.994887e-08
2.8152746e-05
2.0530693e-08
8.8565927e-08
2.8083503e-05
2.0782567e-08
8.7201792e-08
2.8015447e-05
2.1017521e-08
8.584867e-08
2.7948582e-05
2.1240728e-08
8.4495853e-08
2.7882937e-05
2.1462716e-08
8.3129486e-08
2.7818574e-05
2.1699971e-08
8.1736525e-08
2.7755588e-05
2.1969279e-08
8.0324349e-08
2.7694014e-05
2.2266176e-08
7.9016059e-08
2.7633299e-05
2.2506279e-08
7.8480616e-08
2.7571004e-05
2.2393428e-08
8.0599464e-08
2.0993088e-08
1.0779948e-07
0.00010489986
2.7443379e-07
6.5049155e-06
9.8802772e-05
5.0716636e-07
6.6362236e-06
9.329591e-05
6.5854975e-07
6.1922972e-06
8.8116302e-05
7.2902546e-07
5.9257148e-06
8.3248198e-05