/*--------------------------------*- C++ -*----------------------------------*\
  =========                 |
  \\      /  F ield         | OpenFOAM: The Open Source CFD Toolbox
   \\    /   O peration     | Website:  https://openfoam.org
    \\  /    A nd           | Version:  7
     \\/     M anipulation  |
\*---------------------------------------------------------------------------*/
FoamFile
{
    version     2.0;
    format      ascii;
    class       surfaceScalarField;
    location    "2000/water";
    object      phi;
}
// * * * * * * * * * * * * * * * * * * * * * * * * * * * * * * * * * * * * * //

dimensions      [1 0 -1 0 0 0 0];

internalField   nonuniform List<scalar> 
156660
(
9.9057239e-05
6.0010402e-06
6.0528092e-06
8.6847498e-05
6.0555113e-06
6.1542307e-06
7.5687891e-05
5.5111362e-06
5.6484701e-06
6.5441704e-05
5.0404181e-06
5.2057689e-06
5.6267661e-05
4.4956436e-06
4.6783992e-06
4.8318019e-05
3.8797648e-06
4.0698777e-06
4.1624776e-05
3.2524449e-06
3.4407981e-06
3.6124897e-05
2.660462e-06
2.839417e-06
3.1692235e-05
2.1345127e-06
2.2981489e-06
2.8162841e-05
1.6926975e-06
1.8366964e-06
2.5361437e-05
1.3399934e-06
1.4614113e-06
2.3124664e-05
1.0698477e-06
1.1669256e-06
2.1315127e-05
8.6875419e-07
9.4078227e-07
1.9825714e-05
7.2110063e-07
7.6831273e-07
1.8577278e-05
6.1248246e-07
6.3595305e-07
1.7513255e-05
5.3125219e-07
5.3277148e-07
1.6593744e-05
4.6879726e-07
4.5071347e-07
1.5790433e-05
4.1913717e-07
3.8417384e-07
1.5082784e-05
3.7829071e-07
3.2935848e-07
1.4455417e-05
3.436713e-07
2.8369563e-07
1.3896409e-05
3.136141e-07
2.4539332e-07
1.339622e-05
2.8704452e-07
2.1314453e-07
1.2947015e-05
2.6326035e-07
1.8594512e-07
1.2542237e-05
2.4179368e-07
1.6298459e-07
1.2176318e-05
2.2232205e-07
1.4359689e-07
1.1844484e-05
2.046148e-07
1.2721881e-07
1.1542609e-05
1.8849495e-07
1.1337973e-07
1.1267116e-05
1.7381571e-07
1.0167793e-07
1.1014892e-05
1.604627e-07
9.1760819e-08
1.0783252e-05
1.4833967e-07
8.3300583e-08
1.0569851e-05
1.3734902e-07
7.605212e-08
1.0372614e-05
1.2738861e-07
6.9848305e-08
1.0189731e-05
1.1836808e-07
6.4514848e-08
1.001963e-05
1.1020448e-07
5.9896638e-08
9.8609388e-06
1.0281923e-07
5.5871658e-08
9.7124594e-06
9.6137949e-08
5.2341377e-08
9.5731439e-06
9.0091168e-08
4.922436e-08
9.4420759e-06
8.4614461e-08
4.6453589e-08
9.3184531e-06
7.9648637e-08
4.3974149e-08
9.2015723e-06
7.5139712e-08
4.1741075e-08
9.0908166e-06
7.1038129e-08
3.9717562e-08
8.9856432e-06
6.730112e-08
3.7872321e-08
8.8855707e-06
6.3894257e-08
3.6178141e-08
8.7901757e-06
6.0780094e-08
3.4614947e-08
8.6990829e-06
5.7926162e-08
3.316663e-08
8.611959e-06
5.5303719e-08
3.1820139e-08
8.5285072e-06
5.2887426e-08
3.0564425e-08
8.4484618e-06
5.0655086e-08
2.9390271e-08
8.3715848e-06
4.8587041e-08
2.8290027e-08
8.2976614e-06
4.6666178e-08
2.7257239e-08
8.2264975e-06
4.4877483e-08
2.6286429e-08
8.1579202e-06
4.3208778e-08
2.5368542e-08
8.0917731e-06
4.1649055e-08
2.4498053e-08
8.0279108e-06
4.0186992e-08
2.3675352e-08
7.9662005e-06
3.8812651e-08
2.28975e-08
7.9065219e-06
3.7518417e-08
2.216022e-08
7.8487639e-06
3.6297861e-08
2.1460159e-08
7.7928242e-06
3.5145132e-08
2.0794569e-08
7.7386083e-06
3.4054668e-08
2.0161175e-08
7.6860293e-06
3.3021351e-08
1.9557683e-08
7.6350062e-06
3.2040813e-08
1.8982248e-08
7.5854641e-06
3.1109075e-08
1.8433056e-08
7.537333e-06
3.0222602e-08
1.7908484e-08
7.4905478e-06
2.9378248e-08
1.7407003e-08
7.4450476e-06
2.8572977e-08
1.6927177e-08
7.4007755e-06
2.7804242e-08
1.6467797e-08
7.3576783e-06
2.7069577e-08
1.6027662e-08
7.3157056e-06
2.6367052e-08
1.5605626e-08
7.2748103e-06
2.5694642e-08
1.5200708e-08
7.2349479e-06
2.5050576e-08
1.4811849e-08
7.1960766e-06
2.4433043e-08
1.4438188e-08
7.158157e-06
2.384065e-08
1.4078936e-08
7.1211518e-06
2.3271936e-08
1.3733298e-08
7.0850258e-06
2.2725497e-08
1.3400515e-08
7.0497456e-06
2.220021e-08
1.3079942e-08
7.0152798e-06
2.1694938e-08
1.2770918e-08
6.9815985e-06
2.1208592e-08
1.2472775e-08
6.9486733e-06
2.0740243e-08
1.2184911e-08
6.9164775e-06
2.0288978e-08
1.19068e-08
6.8849857e-06
1.9853944e-08
1.1637808e-08
6.8541739e-06
1.9434381e-08
1.1377426e-08
6.8240193e-06
1.9029458e-08
1.1125088e-08
6.7945006e-06
1.8638485e-08
1.0880253e-08
6.7655975e-06
1.8260747e-08
1.0642325e-08
6.7372912e-06
1.7895543e-08
1.0410741e-08
6.7095641e-06
1.7542103e-08
1.0185092e-08
6.6823995e-06
1.7199649e-08
9.9648525e-09
6.6557824e-06
1.6867287e-08
9.74982e-09
6.6296983e-06
1.6544148e-08
9.5399639e-09
6.6041331e-06
1.622926e-08
9.3359854e-09
6.5790714e-06
1.5921974e-08
9.1396919e-09
6.554494e-06
1.5622323e-08
8.9550966e-09
6.5303708e-06
1.5332557e-08
8.7906311e-09
6.5066467e-06
1.5060478e-08
8.6636056e-09
6.4832094e-06
1.4827826e-08
8.6095189e-09
6.4598103e-06
1.4693072e-08
8.7060022e-09
6.4358387e-06
1.4826405e-08
9.1451372e-09
6.4096302e-06
1.5741747e-08
1.0466726e-08
6.3782854e-06
1.802657e-08
1.3318217e-08
3.2300198e-08
2.7923574e-08
0.00010646494
4.1872385e-06
6.4599816e-06
0.0001002019
5.695418e-06
6.6231353e-06
9.3659588e-05
5.7790389e-06
6.2744098e-06
8.7011589e-05
5.6514782e-06
6.0369387e-06
8.0422927e-05
5.366912e-06
5.7173941e-06
7.4094022e-05
4.9022832e-06
5.3063862e-06
6.8167026e-05
4.3278135e-06
4.8516272e-06
6.2722565e-05
3.717891e-06
4.387032e-06
5.7799049e-05
3.1243144e-06
3.9337144e-06
5.3403345e-05
2.5820689e-06
3.5063328e-06
4.9517402e-05
2.1121062e-06
3.1138299e-06
4.6105482e-05
1.7220197e-06
2.7597474e-06
4.3121558e-05
1.4089355e-06
2.4437429e-06
4.0515558e-05
1.1637552e-06
2.163346e-06
3.8237948e-05
9.7485852e-07
1.9152336e-06
3.6242683e-05
8.3055977e-07
1.6959573e-06
3.4488759e-05
7.2043698e-07
1.5022849e-06
3.2940716e-05
6.3586297e-07
1.3313172e-06
3.1568463e-05
5.7005007e-07
1.1804931e-06
3.0346733e-05
5.1784898e-07
1.0475522e-06
2.9254398e-05
4.7545956e-07
9.3049032e-07
2.8273782e-05
4.4013958e-07
8.2752023e-07
2.7390054e-05
4.0994896e-07
7.3704008e-07
2.6590699e-05
3.8353959e-07
6.5760855e-07
2.5865102e-05
3.599889e-07
5.8793072e-07
2.5204197e-05
3.3867636e-07
5.2684261e-07
2.4600205e-05
3.1918364e-07
4.7330349e-07
2.4046429e-05
3.012019e-07
4.2639019e-07
2.3537072e-05
2.8455206e-07
3.8526715e-07
2.3067119e-05
2.6911101e-07
3.4918239e-07
2.2632208e-05
2.5478166e-07
3.1747784e-07
2.2228528e-05
2.4147382e-07
2.8959532e-07
2.1852744e-05
2.2911074e-07
2.6504123e-07
2.1501947e-05
2.1762894e-07
2.4337257e-07
2.1173591e-05
2.0696954e-07
2.2420573e-07
2.0865444e-05
1.9707568e-07
2.0720865e-07
2.0575549e-05
1.8789255e-07
1.9209396e-07
2.0302183e-05
1.7936721e-07
1.7861345e-07
2.0043829e-05
1.7144909e-07
1.6655325e-07
1.979915e-05
1.6408981e-07
1.5572944e-07
1.956696e-05
1.5724383e-07
1.4598403e-07
1.934621e-05
1.5086897e-07
1.3718219e-07
1.9135969e-05
1.4492652e-07
1.2920882e-07
1.8935407e-05
1.3937905e-07
1.219631e-07
1.8743783e-05
1.3419228e-07
1.1535759e-07
1.8560435e-05
1.2933508e-07
1.0931724e-07
1.8384766e-05
1.2477906e-07
1.0377715e-07
1.8216241e-05
1.2049851e-07
9.8681286e-08
1.8054377e-05
1.1647018e-07
9.3981303e-08
1.7898734e-05
1.1267294e-07
8.9635439e-08
1.7748917e-05
1.0908824e-07
8.5606995e-08
1.7604563e-05
1.0570007e-07
8.1862422e-08
1.7465345e-05
1.024934e-07
7.8373275e-08
1.7330962e-05
9.9452994e-08
7.5116977e-08
1.7201138e-05
9.6564412e-08
7.2072748e-08
1.7075619e-05
9.3816642e-08
6.9221126e-08
1.695417e-05
9.1201133e-08
6.6545103e-08
1.6836577e-05
8.8709132e-08
6.4029562e-08
1.6722638e-05
8.6331967e-08
6.1661061e-08
1.661217e-05
8.4061767e-08
5.9427706e-08
1.6505001e-05
8.1891525e-08
5.7318831e-08
1.640097e-05
7.9814909e-08
5.5324824e-08
1.6299929e-05
7.7826119e-08
5.3437131e-08
1.620174e-05
7.5919864e-08
5.1647903e-08
1.6106272e-05
7.4090999e-08
4.9950145e-08
1.6013404e-05
7.2334944e-08
4.8337374e-08
1.5923022e-05
7.0647677e-08
4.680386e-08
1.5835019e-05
6.9025742e-08
4.5344266e-08
1.5749294e-05
6.7465519e-08
4.3953681e-08
1.5665753e-05
6.5963764e-08
4.2627703e-08
1.5584307e-05
6.451736e-08
4.1362191e-08
1.5504871e-05
6.31234e-08
4.0153371e-08
1.5427365e-05
6.1779313e-08
3.8997823e-08
1.5351716e-05
6.0482547e-08
3.7892324e-08
1.5277852e-05
5.9230813e-08
3.6833866e-08
1.5205705e-05
5.8021998e-08
3.5819728e-08
1.5135212e-05
5.685397e-08
3.4847354e-08
1.5066313e-05
5.5724939e-08
3.3914333e-08
1.499895e-05
5.4633098e-08
3.3018375e-08
1.493307e-05
5.3576721e-08
3.2157425e-08
1.4868621e-05
5.2554181e-08
3.1329435e-08
1.4805554e-05
5.1563943e-08
3.0532407e-08
1.4743823e-05
5.060446e-08
2.9764667e-08
1.4683386e-05
4.9674264e-08
2.9024373e-08
1.4624199e-05
4.8771787e-08
2.8309863e-08
1.4566226e-05
4.7895447e-08
2.7619575e-08
1.4509431e-05
4.7043533e-08
2.6951991e-08
1.4453778e-05
4.6214133e-08
2.6305764e-08
1.4399237e-05
4.5405407e-08
2.5679869e-08
1.4345777e-05
4.4615722e-08
2.5073756e-08
1.4293367e-05
4.3844239e-08
2.4487706e-08
1.4241972e-05
4.3092853e-08
2.3923781e-08
1.4191548e-05
4.2369902e-08
2.338715e-08
1.4142019e-05
4.1699304e-08
2.2889628e-08
1.4093249e-05
4.1141643e-08
2.245659e-08
1.4044951e-05
4.0844642e-08
2.2146525e-08
1.3996485e-05
4.1169197e-08
2.212304e-08
1.3946229e-05
4.3012296e-08
2.298541e-08
1.389015e-05
4.8540241e-08
2.5565766e-08
6.3281545e-08
5.0000836e-08
0.00010603565
2.7876425e-06
6.4750379e-06
0.00010074799
4.4145413e-06
6.5685292e-06
9.5493515e-05
4.8594027e-06
6.1741158e-06
9.0256432e-05
4.930369e-06
5.9581921e-06
8.5101366e-05
4.8311767e-06
5.6908012e-06
8.0102875e-05
4.5561761e-06
5.3445981e-06
7.5322251e-05
4.146952e-06
4.9614853e-06
7.0803266e-05
3.6678925e-06
4.5689837e-06
6.6576264e-05
3.1701903e-06
4.1811255e-06
6.2660725e-05
2.6900109e-06
3.8075976e-06
5.9065443e-05
2.2519318e-06
3.4554566e-06
5.5788936e-05
1.8697304e-06
3.1287957e-06
5.2820978e-05
1.5477473e-06
2.8291458e-06
5.014479e-05
1.2836302e-06
2.5563139e-06
4.7739304e-05
1.07123e-06
2.3091141e-06
4.5581183e-05
9.0281503e-07
2.0858661e-06
4.3646423e-05
7.7048778e-07
1.884709e-06
4.1911533e-05
6.6697376e-07
1.7037793e-06
4.0354306e-05
5.8598198e-07
1.541295e-06
3.8954268e-05
5.2230224e-07
1.3955849e-06
3.769288e-05
4.7175604e-07
1.265091e-06
3.6553576e-05
4.3107987e-07
1.1483634e-06
3.552169e-05
3.9778205e-07
1.0440533e-06
3.4584322e-05
3.6999884e-07
9.5090827e-07
3.3730181e-05
3.4635989e-07
8.6777018e-07
3.2949411e-05
3.2587765e-07
7.9356871e-07
3.2233419e-05
3.0784051e-07
7.2733486e-07
3.1574711e-05
2.9172986e-07
6.6818105e-07
3.0966769e-05
2.7719264e-07
6.1530125e-07
3.0403928e-05
2.6398102e-07
5.6797019e-07
2.9881258e-05
2.5190845e-07
5.2554315e-07
2.9394455e-05
2.4082711e-07
4.8745001e-07
2.8939761e-05
2.3062158e-07
4.5318326e-07
2.8513895e-05
2.2120153e-07
4.2229385e-07
2.8113985e-05
2.1249193e-07
3.9438675e-07
2.7737518e-05
2.0442793e-07
3.6911487e-07
2.7382285e-05
1.9695194e-07
3.4617383e-07
2.7046344e-05
1.9001177e-07
3.2529682e-07
2.6727982e-05
1.8355992e-07
3.0625043e-07
2.6425689e-05
1.7755272e-07
2.8883086e-07
2.6138123e-05
1.7195005e-07
2.7285984e-07
2.5864094e-05
1.6671514e-07
2.5818183e-07
2.5602546e-05
1.6181453e-07
2.446609e-07
2.535253e-05
1.5721709e-07
2.3217766e-07
2.51132e-05
1.528944e-07
2.2062726e-07
2.4883797e-05
1.4882097e-07
2.0991774e-07
2.4663634e-05
1.4497365e-07
1.999681e-07
2.4452094e-05
1.4133182e-07
1.9070704e-07
2.4248615e-05
1.3787696e-07
1.8207152e-07
2.405269e-05
1.3459268e-07
1.7400572e-07
2.3863854e-05
1.3146462e-07
1.6645988e-07
2.3681684e-05
1.2848056e-07
1.5938926e-07
2.3505794e-05
1.2562919e-07
1.5275412e-07
2.3335829e-05
1.2289867e-07
1.4651967e-07
2.3171462e-05
1.2027633e-07
1.4065459e-07
2.3012394e-05
1.1775473e-07
1.3513019e-07
2.2858345e-05
1.1532969e-07
1.2992042e-07
2.2709057e-05
1.1299541e-07
1.2500175e-07
2.2564291e-05
1.1074522e-07
1.2035292e-07
2.2423824e-05
1.0857348e-07
1.1595457e-07
2.2287451e-05
1.0647549e-07
1.1178922e-07
2.2154978e-05
1.0444699e-07
1.0784079e-07
2.2026226e-05
1.0248419e-07
1.0409458e-07
2.1901025e-05
1.0058351e-07
1.0053715e-07
2.1779218e-05
9.8741526e-08
9.7156167e-08
2.1660658e-05
9.6954885e-08
9.3940258e-08
2.1545205e-05
9.5221252e-08
9.0879039e-08
2.1432729e-05
9.3538787e-08
8.7962785e-08
2.1323107e-05
9.1905283e-08
8.5182583e-08
2.1216222e-05
9.0318486e-08
8.2530141e-08
2.1111965e-05
8.8776391e-08
7.9997879e-08
2.1010233e-05
8.7277098e-08
7.7578665e-08
2.0910927e-05
8.5818965e-08
7.5265892e-08
2.0813956e-05
8.4400322e-08
7.3053457e-08
2.0719232e-05
8.3019679e-08
7.0935661e-08
2.0626671e-05
8.1675628e-08
6.8907216e-08
2.0536195e-05
8.0366832e-08
6.6963141e-08
2.0447729e-05
7.9091964e-08
6.5098751e-08
2.0361203e-05
7.7849809e-08
6.3309753e-08
2.0276548e-05
7.6639194e-08
6.1591997e-08
2.0193702e-05
7.5458972e-08
5.9941762e-08
2.0112602e-05
7.4307921e-08
5.8355225e-08
2.0033193e-05
7.3184945e-08
5.6829085e-08
1.9955419e-05
7.2088593e-08
5.5359971e-08
1.9879228e-05
7.1017608e-08
5.3944871e-08
1.9804572e-05
6.997043e-08
5.2580743e-08
1.9731406e-05
6.8945264e-08
5.1264817e-08
1.9659685e-05
6.7940106e-08
4.9994385e-08
1.9589371e-05
6.6953025e-08
4.8767028e-08
1.9520423e-05
6.5982334e-08
4.758053e-08
1.9452807e-05
6.5028019e-08
4.6433108e-08
1.9386482e-05
6.4094095e-08
4.5323769e-08
1.9321404e-05
6.3194665e-08
4.4253079e-08
1.9257511e-05
6.2366312e-08
4.3225228e-08
1.9194705e-05
6.1695178e-08
4.2253135e-08
1.9132798e-05
6.1374064e-08
4.1377374e-08
1.9071394e-05
6.1822412e-08
4.0750671e-08
1.9009424e-05
6.3924732e-08
4.1057607e-08
1.8944661e-05
6.9304698e-08
4.3998847e-08
7.9170928e-08
7.4661546e-08
0.0001054937
1.9169871e-06
6.4880406e-06
0.00010005365
3.2729596e-06
6.5816334e-06
9.4926077e-05
3.8288995e-06
6.1580776e-06
8.9946373e-05
3.9838108e-06
5.9262629e-06
8.5163276e-05
3.9595077e-06
5.6547657e-06
8.0619137e-05
3.7899368e-06
5.3103784e-06
7.6329462e-05
3.5015547e-06
4.9350725e-06
7.230016e-05
3.1412013e-06
4.5559928e-06
6.8534206e-05
2.7514802e-06
4.1846641e-06
6.5032983e-05
2.3633493e-06
3.8278853e-06
6.1795789e-05
1.9984143e-06
3.490711e-06
5.8818843e-05
1.6703759e-06
3.176301e-06
5.6094717e-05
1.3858295e-06
2.886043e-06
5.3612488e-05
1.1457945e-06
2.6200649e-06
5.1358373e-05
9.4764117e-07
2.3777043e-06
4.9316593e-05
7.8676781e-07
2.1578272e-06
4.7470246e-05
6.5779546e-07
1.9590391e-06
4.5802069e-05
5.5532539e-07
1.7798252e-06
4.4295042e-05
4.7437113e-07
1.6186378e-06
4.293283e-05
4.1056665e-07
1.473948e-06
4.1700078e-05
3.6023237e-07
1.3442759e-06
4.0582591e-05
3.2035741e-07
1.2282094e-06
3.956742e-05
2.8853733e-07
1.1244154e-06
3.8642881e-05
2.6289063e-07
1.0316467e-06
3.7798527e-05
2.4196985e-07
9.48744e-07
3.7025076e-05
2.2467703e-07
8.7465169e-07
3.6314324e-05
2.10189e-07
8.0840411e-07
3.5659057e-05
1.9788604e-07
7.4911038e-07
3.5052961e-05
1.8731583e-07
6.959728e-07
3.4490519e-05
1.7814869e-07
6.482738e-07
3.3966922e-05
1.7013172e-07
6.0537438e-07
3.3477973e-05
1.6306726e-07
5.6670867e-07
3.3020016e-05
1.5680296e-07
5.3177538e-07
3.2589865e-05
1.5122054e-07
5.0013241e-07
3.218474e-05
1.4622561e-07
4.7139137e-07
3.1802215e-05
1.4174071e-07
4.4521233e-07
3.1440168e-05
1.3770092e-07
4.2129807e-07
3.1096739e-05
1.3405095e-07
3.9938923e-07
3.0770297e-05
1.3074295e-07
3.7925956e-07
3.0459402e-05
1.2773517e-07
3.6071196e-07
3.0162787e-05
1.2499093e-07
3.4357479e-07
2.9879325e-05
1.2247783e-07
3.2769851e-07
2.960802e-05
1.2016733e-07
3.1295272e-07
2.934798e-05
1.1803381e-07
2.9922354e-07
2.9098408e-05
1.160546e-07
2.8641138e-07
2.885859e-05
1.1420982e-07
2.7442904e-07
2.8627882e-05
1.1248192e-07
2.6319996e-07
2.8405701e-05
1.1085557e-07
2.5265683e-07
2.819152e-05
1.0931761e-07
2.4274022e-07
2.7984859e-05
1.0785651e-07
2.3339755e-07
2.7785279e-05
1.0646278e-07
2.2458214e-07
2.7592378e-05
1.0512871e-07
2.1625214e-07
2.740579e-05
1.0384738e-07
2.0837032e-07
2.7225174e-05
1.0261118e-07
2.0090358e-07
2.705022e-05
1.0140746e-07
1.9382254e-07
2.6880641e-05
1.0023384e-07
1.8710041e-07
2.6716166e-05
9.9092361e-08
1.8071221e-07
2.6556546e-05
9.798e-08
1.7463555e-07
2.6401548e-05
9.6892522e-08
1.6885012e-07
2.6250957e-05
9.5827116e-08
1.6333741e-07
2.610457e-05
9.4781688e-08
1.5808043e-07
2.5962199e-05
9.3754735e-08
1.5306359e-07
2.5823666e-05
9.2744856e-08
1.482726e-07
2.5688804e-05
9.1751004e-08
1.4369413e-07
2.5557458e-05
9.0771788e-08
1.3931599e-07
2.5429481e-05
8.9805194e-08
1.3512694e-07
2.5304734e-05
8.8851461e-08
1.3111643e-07
2.5183087e-05
8.7911184e-08
1.2727465e-07
2.5064416e-05
8.6983903e-08
1.235924e-07
2.4948604e-05
8.6068894e-08
1.2006118e-07
2.4835542e-05
8.5165794e-08
1.16673e-07
2.4725124e-05
8.4274307e-08
1.1342048e-07
2.4617252e-05
8.3394263e-08
1.1029657e-07
2.4511832e-05
8.2525445e-08
1.0729481e-07
2.4408775e-05
8.1667727e-08
1.04409e-07
2.4307997e-05
8.0820964e-08
1.0163343e-07
2.4209416e-05
7.9985002e-08
9.8962668e-08
2.4112956e-05
7.9159705e-08
9.6391572e-08
2.4018546e-05
7.8345013e-08
9.3915297e-08
2.3926115e-05
7.754067e-08
9.1529291e-08
2.3835598e-05
7.6746516e-08
8.9229292e-08
2.3746933e-05
7.5962333e-08
8.7011049e-08
2.366006e-05
7.5187619e-08
8.4870721e-08
2.3574922e-05
7.4421944e-08
8.2804559e-08
2.3491466e-05
7.3664591e-08
8.0808917e-08
2.3409641e-05
7.2914604e-08
7.8880363e-08
2.33294e-05
7.2170691e-08
7.7015504e-08
2.3250698e-05
7.1431303e-08
7.5211017e-08
2.3173493e-05
7.0694867e-08
7.3463603e-08
2.3097745e-05
6.9960194e-08
7.177007e-08
2.3023418e-05
6.9227974e-08
7.0127043e-08
2.2950477e-05
6.8503481e-08
6.8531201e-08
2.2878889e-05
6.7802889e-08
6.6979711e-08
2.2808619e-05
6.7165058e-08
6.5471558e-08
2.2739625e-05
6.6675269e-08
6.4013362e-08
2.267185e-05
6.6507079e-08
6.2642283e-08
2.2605149e-05
6.6990738e-08
6.1532379e-08
2.2538888e-05
6.8686057e-08
6.1499878e-08
2.2471121e-05
7.2226973e-08
6.4845106e-08
7.6722831e-08
9.8461315e-08
0.0001051979
1.3340884e-06
6.4961221e-06
9.9496561e-05
2.3731022e-06
6.6011947e-06
9.4262459e-05
2.9019223e-06
6.1610799e-06
8.9251186e-05
3.0856641e-06
5.9094196e-06
8.4493497e-05
3.0947347e-06
5.6224614e-06
8.0033635e-05
2.9846657e-06
5.265134e-06
7.5876907e-05
2.7790155e-06
4.8792667e-06
7.2014635e-05
2.5106843e-06
4.4927895e-06
6.8436293e-05
2.2128728e-06
4.1169489e-06
6.5131387e-05
1.9107259e-06
3.7575292e-06
6.208941e-05
1.621732e-06
3.4186596e-06
5.9299432e-05
1.3573877e-06
3.1029661e-06
5.6749589e-05
1.1240344e-06
2.8116387e-06
5.4426788e-05
9.2377945e-07
2.5448157e-06
5.2316754e-05
7.55728e-07
2.3019466e-06
5.0404313e-05
6.1717855e-07
2.0820302e-06
4.8673788e-05
5.0454348e-07
1.8837772e-06
4.7109414e-05
4.1397177e-07
1.7057274e-06
4.5695713e-05
3.4173647e-07
1.5463363e-06
4.4417792e-05
2.8445144e-07
1.4040359e-06
4.3261575e-05
2.3917115e-07
1.2772781e-06
4.2213952e-05
2.0341505e-07
1.1645652e-06
4.1262871e-05
1.7514742e-07
1.0644719e-06
4.039737e-05
1.5273232e-07
9.7565898e-07
3.9607583e-05
1.3487528e-07
8.9688146e-07
3.8884688e-05
1.2055568e-07
8.270164e-07
3.8220848e-05
1.0901092e-07
7.6501855e-07
3.7609155e-05
9.9633852e-08
7.0994488e-07
3.7043542e-05
9.1977432e-08
6.6095086e-07
3.6518702e-05
8.5705803e-08
6.1728286e-07
3.6030009e-05
8.0552387e-08
5.7827305e-07
3.5573433e-05
7.6308293e-08
5.4333411e-07
3.5145475e-05
7.2811272e-08
5.1195027e-07
3.4743091e-05
6.9934123e-08
4.8367023e-07
3.4363641e-05
6.7575435e-08
4.5810067e-07
3.4004828e-05
6.5652889e-08
4.3489997e-07
3.3664659e-05
6.4098588e-08
4.1377209e-07
3.3341393e-05
6.285592e-08
3.9446097e-07
3.3033513e-05
6.1877006e-08
3.7674528e-07
3.2739693e-05
6.1121082e-08
3.6043424e-07
3.2458768e-05
6.0553044e-08
3.4536328e-07
3.2189712e-05
6.0142681e-08
3.3139056e-07
3.1931622e-05
5.9863654e-08
3.1839378e-07
3.1683696e-05
5.9693144e-08
3.0626735e-07
3.1445219e-05
5.9611193e-08
2.9492011e-07
3.1215555e-05
5.9600586e-08
2.8427315e-07
3.0994132e-05
5.9646511e-08
2.7425808e-07
3.0780436e-05
5.9736181e-08
2.648154e-07
3.0574002e-05
5.9858653e-08
2.5589331e-07
3.0374407e-05
6.0004935e-08
2.4744659e-07
3.0181267e-05
6.0167649e-08
2.3943547e-07
2.9994229e-05
6.0341285e-08
2.3182487e-07
2.9812971e-05
6.0521819e-08
2.2458376e-07
2.9637193e-05
6.0704487e-08
2.1768455e-07
2.9466629e-05
6.0867309e-08
2.1110457e-07
2.9301024e-05
6.1017013e-08
2.0482179e-07
2.914014e-05
6.1160883e-08
1.9881567e-07
2.8983756e-05
6.1294942e-08
1.9306836e-07
2.8831669e-05
6.1415501e-08
1.8756387e-07
2.8683688e-05
6.1520942e-08
1.8228763e-07
2.8539633e-05
6.1610545e-08
1.7722634e-07
2.8399336e-05
6.1683799e-08
1.7236782e-07
2.8262639e-05
6.1740488e-08
1.677009e-07
2.8129394e-05
6.178069e-08
1.6321517e-07
2.7999461e-05
6.1803879e-08
1.5890121e-07
2.7872709e-05
6.1807359e-08
1.5475034e-07
2.7749012e-05
6.1793571e-08
1.5075442e-07
2.7628253e-05
6.1764796e-08
1.4690559e-07
2.7510319e-05
6.172097e-08
1.4319659e-07
2.7395105e-05
6.1662099e-08
1.3962085e-07
2.728251e-05
6.1588617e-08
1.36172e-07
2.7172439e-05
6.1501049e-08
1.3284424e-07
2.7064802e-05
6.1399949e-08
1.2963195e-07
2.6959511e-05
6.1285926e-08
1.2652992e-07
2.6856486e-05
6.115951e-08
1.2353325e-07
2.6755649e-05
6.1021303e-08
1.2063731e-07
2.6656924e-05
6.0871871e-08
1.1783766e-07
2.6560242e-05
6.0711744e-08
1.1513014e-07
2.6465535e-05
6.0541369e-08
1.1251077e-07
2.6372738e-05
6.0361318e-08
1.0997579e-07
2.6281791e-05
6.0171938e-08
1.075216e-07
2.6192636e-05
5.9973547e-08
1.0514471e-07
2.6105215e-05
5.9766313e-08
1.0284183e-07
2.6019477e-05
5.9550237e-08
1.0060976e-07
2.5935371e-05
5.9325153e-08
9.8445275e-08
2.585285e-05
5.9090511e-08
9.6345374e-08
2.5771868e-05
5.8845495e-08
9.4306958e-08
2.5692384e-05
5.8589006e-08
9.232675e-08
2.5614357e-05
5.831981e-08
9.0401417e-08
2.5537753e-05
5.8037084e-08
8.8527323e-08
2.5462539e-05
5.774163e-08
8.6700195e-08
2.5388689e-05
5.7438414e-08
8.4915192e-08
2.5316184e-05
5.7141414e-08
8.3166645e-08
2.5245017e-05
5.6882575e-08
8.1449645e-08
2.51752e-05
5.6726022e-08
7.9765815e-08
2.510677e-05
5.6787916e-08
7.8149193e-08
2.5039729e-05
5.7251595e-08
7.6780994e-08
2.4973573e-05
5.8330944e-08
7.6510228e-08
2.4906079e-05
5.9989476e-08
7.9732145e-08
6.071499e-08
1.1287822e-07
0.00010503672
9.0789371e-07
6.5005615e-06
9.9140653e-05
1.6524914e-06
6.6166802e-06
9.3788329e-05
2.0825241e-06
6.1717217e-06
8.8708526e-05
2.2549373e-06
5.91053e-06
8.3909682e-05
2.278404e-06
5.6151748e-06
7.9437109e-05
2.2074821e-06
5.2497564e-06
7.5296201e-05
2.0645348e-06
4.8553893e-06
7.1474034e-05
1.8722543e-06
4.460597e-06
6.7955013e-05
1.6547667e-06
4.0771269e-06
6.4723621e-05
1.4313505e-06
3.7107669e-06
6.1764423e-05
1.2154297e-06
3.3655007e-06
5.9062056e-05
1.015864e-06
3.0438911e-06
5.6601108e-05
8.3782742e-07
2.7471548e-06
5.4365944e-05
6.8344645e-07
2.475497e-06
5.2340648e-05
5.5258526e-07
2.2284383e-06
5.0509125e-05
4.4366548e-07
2.0050361e-06
4.8855299e-05
3.5433455e-07
1.8040352e-06
4.7363353e-05
2.819359e-07
1.6239821e-06
4.6017963e-05
2.2381345e-07
1.4633127e-06
4.4804502e-05
1.7749378e-07
1.320418e-06
4.3709199e-05
1.4078088e-07
1.1936935e-06
4.2719248e-05
1.1179155e-07
1.081575e-06
4.1822875e-05
8.8954547e-08
9.8256587e-07
4.1009364e-05
7.0987985e-08
8.9525472e-07
4.0269054e-05
5.6861822e-08
8.1832382e-07
3.9593306e-05
4.5719116e-08
7.5058477e-07
3.8974405e-05
3.6977876e-08
6.9093437e-07
3.8405585e-05
3.0067362e-08
6.3838633e-07
3.7880869e-05
2.4650885e-08
5.9204241e-07
3.7395029e-05
2.0439993e-08
5.5110604e-07
3.6943514e-05
1.7190295e-08
5.1487714e-07
3.6522366e-05
1.4716737e-08
4.8273957e-07
3.6128148e-05
1.2874761e-08
4.5415389e-07
3.5757883e-05
1.1549888e-08
4.2864944e-07
3.5408991e-05
1.0650779e-08
4.0581704e-07
3.5079238e-05
1.0103615e-08
3.8530227e-07
3.4766689e-05
9.848254e-09
3.6679876e-07
3.4469668e-05
9.8350801e-09
3.5004232e-07
3.4186716e-05
1.0022959e-08
3.3480551e-07
3.3916567e-05
1.0377024e-08
3.2089285e-07
3.3658116e-05
1.0868067e-08
3.0813659e-07
3.3410395e-05
1.1470983e-08
2.9639283e-07
3.3172556e-05
1.2164249e-08
2.8553827e-07
3.2943853e-05
1.2929293e-08
2.7546717e-07
3.2723625e-05
1.3750157e-08
2.6608894e-07
3.2511286e-05
1.4613064e-08
2.5732571e-07
3.2306316e-05
1.550623e-08
2.4911066e-07
3.2108246e-05
1.6419609e-08
2.4138621e-07
3.1916658e-05
1.7344643e-08
2.341027e-07
3.1731171e-05
1.8274323e-08
2.2721712e-07
3.1551444e-05
1.9203181e-08
2.2069214e-07
3.1377162e-05
2.0127748e-08
2.1449508e-07
3.1208038e-05
2.1048663e-08
2.0859683e-07
3.10438e-05
2.1972793e-08
2.0297059e-07
3.0884232e-05
2.282786e-08
1.976074e-07
3.0729103e-05
2.3662983e-08
1.9248226e-07
3.05782e-05
2.4490038e-08
1.8757382e-07
3.0431331e-05
2.5296299e-08
1.8286765e-07
3.0288318e-05
2.6077984e-08
1.7835075e-07
3.0148994e-05
2.6834306e-08
1.7401107e-07
3.0013202e-05
2.7564691e-08
1.6983752e-07
2.9880797e-05
2.8268969e-08
1.6582023e-07
2.975164e-05
2.8947451e-08
1.6195014e-07
2.9625601e-05
2.9600763e-08
1.5821896e-07
2.9502557e-05
3.0228539e-08
1.5461919e-07
2.9382396e-05
3.0823563e-08
1.5114463e-07
2.9265007e-05
3.1393141e-08
1.4778877e-07
2.9150287e-05
3.1939611e-08
1.4454536e-07
2.9038137e-05
3.2461879e-08
1.4140899e-07
2.8928465e-05
3.2960057e-08
1.3837464e-07
2.8821181e-05
3.3434674e-08
1.3543751e-07
2.8716203e-05
3.3886341e-08
1.325933e-07
2.8613449e-05
3.4315547e-08
1.2983786e-07
2.8512845e-05
3.4722872e-08
1.2716739e-07
2.8414317e-05
3.5108956e-08
1.2457815e-07
2.8317797e-05
3.5474442e-08
1.2206678e-07
2.8223219e-05
3.5819898e-08
1.1963008e-07
2.813052e-05
3.614592e-08
1.1726494e-07
2.803964e-05
3.645306e-08
1.1496842e-07
2.7950522e-05
3.6741866e-08
1.1273776e-07
2.7863111e-05
3.7012812e-08
1.1057028e-07
2.7777354e-05
3.7266247e-08
1.0846345e-07
2.7693204e-05
3.7502465e-08
1.0641474e-07
2.761061e-05
3.7721608e-08
1.0442175e-07
2.752953e-05
3.7923572e-08
1.0248199e-07
2.744992e-05
3.8107987e-08
1.0059307e-07
2.7371738e-05
3.8274288e-08
9.8752312e-08
2.7294949e-05
3.8421537e-08
9.6956905e-08
2.7219516e-05
3.8548709e-08
9.5203627e-08
2.714541e-05
3.8655092e-08
9.3488623e-08
2.7072603e-05
3.8741143e-08
9.1806952e-08
2.7001079e-05
3.8810288e-08
9.0152334e-08
2.6930832e-05
3.8872114e-08
8.8516583e-08
2.6861876e-05
3.8947359e-08
8.6890539e-08
2.679426e-05
3.9073517e-08
8.5269185e-08
2.6728065e-05
3.9306971e-08
8.3675939e-08
2.6663337e-05
3.9708344e-08
8.227118e-08
2.659956e-05
4.0271969e-08
8.183617e-08
2.6534295e-05
4.0698027e-08
8.455573e-08
3.9620863e-08
1.1507131e-07
0.00010494757
5.681108e-07
6.5033076e-06
9.8925416e-05
1.0462983e-06
6.6283517e-06
9.3480449e-05
1.3439844e-06
6.1835065e-06
8.8341777e-05
1.4751324e-06
5.9184763e-06
8.3502084e-05
1.4993911e-06
5.6187065e-06
7.9004057e-05
1.4572411e-06
5.2482679e-06
7.4853978e-05
1.3667382e-06
4.8478757e-06
7.1037378e-05
1.2423973e-06
4.4464569e-06
6.7536062e-05
1.0997693e-06
4.0563128e-06
6.4331998e-05
9.5192359e-07
3.683491e-06
6.1407318e-05
8.0805757e-07
3.3320524e-06
5.8744339e-05
6.7422203e-07
3.0046209e-06
5.6325632e-05
5.5404398e-07
2.7024907e-06
5.4133973e-05
4.4916747e-07
2.4259383e-06
5.2152298e-05
3.59724e-07
2.174536e-06
5.0363747e-05
2.8484511e-07
1.9473717e-06
4.875178e-05
2.2310002e-07
1.7432015e-06
4.7300339e-05
1.7281164e-07
1.5605647e-06
4.5994012e-05
1.3226572e-07
1.3978747e-06
4.4818177e-05
9.984003e-08
1.2534891e-06
4.3759121e-05
7.4075613e-08
1.1257614e-06
4.2804123e-05
5.3707622e-08
1.0130814e-06
4.1941503e-05
3.7671202e-08
9.1390377e-07
4.1160627e-05
2.5096449e-08
8.2676731e-07
4.0451891e-05
1.5294145e-08
7.5030389e-07
3.980679e-05
7.5281497e-09
6.8329174e-07
3.9217543e-05
1.672725e-09
6.2455201e-07
3.8677513e-05
-3.0331097e-09
5.7313083e-07
3.8180739e-05
-6.6486615e-09
5.2807354e-07
3.7722004e-05
-9.3594883e-09
4.8853451e-07
3.7296777e-05
-1.1371784e-08
4.5378926e-07
3.6901112e-05
-1.2818227e-08
4.2319913e-07
3.6531588e-05
-1.38053e-08
3.9620476e-07
3.6185236e-05
-1.4417487e-08
3.7231875e-07
3.5859491e-05
-1.4721908e-08
3.5111775e-07
3.5552132e-05
-1.4772625e-08
3.3223577e-07
3.5261237e-05
-1.4613941e-08
3.1535728e-07
3.4985143e-05
-1.4282186e-08
3.002109e-07
3.472241e-05
-1.3807695e-08
2.8656376e-07
3.4471787e-05
-1.3215869e-08
2.7421632e-07
3.4232185e-05
-1.2528174e-08
2.629977e-07
3.4002657e-05
-1.1762801e-08
2.5276174e-07
3.3782373e-05
-1.0935238e-08
2.4338337e-07
3.3570606e-05
-1.0058772e-08
2.3475554e-07
3.3366714e-05
-9.1447406e-09
2.2678672e-07
3.3170131e-05
-8.2028299e-09
2.1939834e-07
3.2980356e-05
-7.2412394e-09
2.1252301e-07
3.279694e-05
-6.2668983e-09
2.0610284e-07
3.2619482e-05
-5.2855675e-09
2.0008783e-07
3.2447623e-05
-4.3018308e-09
1.9443478e-07
3.228104e-05
-3.3190463e-09
1.8910585e-07
3.2119438e-05
-2.3383045e-09
1.8406734e-07
3.1962554e-05
-1.3530114e-09
1.7928647e-07
3.1810075e-05
-2.7633247e-10
1.7472767e-07
3.1661878e-05
5.8581577e-10
1.7043905e-07
3.1517732e-05
1.4356182e-09
1.6637294e-07
3.1377429e-05
2.3038165e-09
1.6248958e-07
3.1240792e-05
3.1586514e-09
1.5877485e-07
3.1107656e-05
3.9969726e-09
1.5521717e-07
3.0977867e-05
4.8171688e-09
1.5180545e-07
3.0851284e-05
5.6179846e-09
1.4852968e-07
3.0727774e-05
6.3990569e-09
1.4538077e-07
3.0607209e-05
7.1609309e-09
1.4235055e-07
3.0489473e-05
7.905927e-09
1.3943122e-07
3.037445e-05
8.6357726e-09
1.366158e-07
3.0262049e-05
9.3206743e-09
1.3390396e-07
3.0152163e-05
9.9938046e-09
1.3128567e-07
3.0044697e-05
1.0650373e-08
1.2875511e-07
2.9939564e-05
1.1286731e-08
1.2630825e-07
2.983668e-05
1.190321e-08
1.2394087e-07
2.9735965e-05
1.2500163e-08
1.2164884e-07
2.9637345e-05
1.3077881e-08
1.1942842e-07
2.9540748e-05
1.3636692e-08
1.1727616e-07
2.9446105e-05
1.4177015e-08
1.1518882e-07
2.9353352e-05
1.4699168e-08
1.1316337e-07
2.9262425e-05
1.5203543e-08
1.11197e-07
2.9173268e-05
1.5690479e-08
1.0928708e-07
2.9085822e-05
1.6160362e-08
1.0743105e-07
2.9000035e-05
1.6613559e-08
1.0562662e-07
2.8915855e-05
1.7050385e-08
1.0387154e-07
2.8833233e-05
1.7471112e-08
1.0216361e-07
2.8752123e-05
1.7875955e-08
1.0050081e-07
2.8672479e-05
1.8265102e-08
9.8881122e-08
2.8594259e-05
1.863856e-08
9.7302487e-08
2.8517424e-05
1.8996228e-08
9.5762936e-08
2.8441934e-05
1.9337803e-08
9.4260338e-08
2.8367753e-05
1.9662813e-08
9.2792349e-08
2.8294848e-05
1.9970497e-08
9.1356277e-08
2.8223187e-05
2.0259995e-08
8.9948869e-08
2.8152746e-05
2.0530715e-08
8.8565949e-08
2.8083503e-05
2.0782605e-08
8.7201793e-08
2.8015447e-05
2.1017527e-08
8.5848661e-08
2.7948582e-05
2.1240716e-08
8.4495874e-08
2.7882937e-05
2.1462727e-08
8.3129516e-08
2.7818574e-05
2.169999e-08
8.1736528e-08
2.7755588e-05
2.1969279e-08
8.0324344e-08
2.7694014e-05
2.2266181e-08
7.9016093e-08
2.7633299e-05
2.2506284e-08
7.8480653e-08
2.7571004e-05
2.2393408e-08
8.0599469e-08
2.0993099e-08
1.0779947e-07
0.00010489986
2.7443375e-07
6.5049155e-06
9.8802772e-05
5.0716633e-07
6.6362236e-06
9.329591e-05
6.5854976e-07
6.1922972e-06
8.8116302e-05
7.2902543e-07
5.9257147e-06