/*--------------------------------*- C++ -*----------------------------------*\
  =========                 |
  \\      /  F ield         | OpenFOAM: The Open Source CFD Toolbox
   \\    /   O peration     | Website:  https://openfoam.org
    \\  /    A nd           | Version:  7
     \\/     M anipulation  |
\*---------------------------------------------------------------------------*/
FoamFile
{
    version     2.0;
    format      ascii;
    class       surfaceScalarField;
    location    "1850/water";
    object      phi;
}
// * * * * * * * * * * * * * * * * * * * * * * * * * * * * * * * * * * * * * //

dimensions      [1 0 -1 0 0 0 0];

internalField   nonuniform List<scalar> 
156660
(
9.905724e-05
6.0010402e-06
6.0528092e-06
8.6847498e-05
6.0555113e-06
6.1542307e-06
7.5687891e-05
5.5111362e-06
5.6484701e-06
6.5441704e-05
5.0404181e-06
5.2057689e-06
5.6267661e-05
4.4956436e-06
4.6783991e-06
4.8318019e-05
3.8797648e-06
4.0698777e-06
4.1624776e-05
3.2524449e-06
3.4407982e-06
3.6124897e-05
2.660462e-06
2.839417e-06
3.1692235e-05
2.1345127e-06
2.2981489e-06
2.8162841e-05
1.6926975e-06
1.8366964e-06
2.5361437e-05
1.3399933e-06
1.4614113e-06
2.3124664e-05
1.0698477e-06
1.1669257e-06
2.1315127e-05
8.6875421e-07
9.4078227e-07
1.9825714e-05
7.2110063e-07
7.6831274e-07
1.8577278e-05
6.1248247e-07
6.3595308e-07
1.7513255e-05
5.3125218e-07
5.3277149e-07
1.6593744e-05
4.6879724e-07
4.5071346e-07
1.5790433e-05
4.1913717e-07
3.8417387e-07
1.5082784e-05
3.782907e-07
3.2935851e-07
1.4455417e-05
3.4367129e-07
2.8369565e-07
1.3896409e-05
3.1361409e-07
2.4539334e-07
1.339622e-05
2.8704453e-07
2.1314452e-07
1.2947015e-05
2.6326031e-07
1.8594508e-07
1.2542237e-05
2.4179366e-07
1.6298457e-07
1.2176318e-05
2.223221e-07
1.435969e-07
1.1844484e-05
2.046148e-07
1.2721881e-07
1.1542609e-05
1.8849493e-07
1.1337973e-07
1.1267116e-05
1.7381575e-07
1.0167793e-07
1.1014892e-05
1.604627e-07
9.1760852e-08
1.0783252e-05
1.4833965e-07
8.3300612e-08
1.0569851e-05
1.3734902e-07
7.6052159e-08
1.0372614e-05
1.2738864e-07
6.9848325e-08
1.0189731e-05
1.1836809e-07
6.4514829e-08
1.001963e-05
1.1020447e-07
5.9896631e-08
9.8609388e-06
1.0281922e-07
5.5871664e-08
9.7124595e-06
9.6137942e-08
5.2341366e-08
9.5731439e-06
9.0091176e-08
4.9224329e-08
9.4420759e-06
8.4614488e-08
4.6453572e-08
9.3184531e-06
7.9648683e-08
4.3974098e-08
9.2015723e-06
7.5139714e-08
4.1741069e-08
9.0908166e-06
7.1038147e-08
3.9717534e-08
8.9856432e-06
6.7301152e-08
3.7872333e-08
8.8855707e-06
6.3894258e-08
3.6178158e-08
8.7901757e-06
6.078008e-08
3.4614932e-08
8.6990829e-06
5.7926175e-08
3.3166645e-08
8.6119591e-06
5.5303755e-08
3.1820125e-08
8.5285072e-06
5.2887446e-08
3.0564418e-08
8.4484619e-06
5.0655065e-08
2.9390299e-08
8.3715848e-06
4.8587039e-08
2.8289994e-08
8.2976614e-06
4.6666172e-08
2.7257211e-08
8.2264975e-06
4.487747e-08
2.6286439e-08
8.1579202e-06
4.320877e-08
2.5368543e-08
8.0917731e-06
4.1649043e-08
2.4498034e-08
8.0279108e-06
4.0187011e-08
2.367535e-08
7.9662006e-06
3.8812671e-08
2.2897529e-08
7.9065219e-06
3.7518399e-08
2.2160245e-08
7.8487639e-06
3.6297876e-08
2.1460155e-08
7.7928242e-06
3.5145155e-08
2.0794585e-08
7.7386084e-06
3.4054677e-08
2.0161154e-08
7.6860293e-06
3.3021354e-08
1.955771e-08
7.6350063e-06
3.2040785e-08
1.8982278e-08
7.5854641e-06
3.110909e-08
1.843306e-08
7.537333e-06
3.0222631e-08
1.7908494e-08
7.4905478e-06
2.9378229e-08
1.7406975e-08
7.4450476e-06
2.8573022e-08
1.6927203e-08
7.4007756e-06
2.780424e-08
1.646777e-08
7.3576783e-06
2.7069603e-08
1.6027647e-08
7.3157057e-06
2.6367044e-08
1.5605636e-08
7.2748103e-06
2.5694648e-08
1.5200673e-08
7.2349479e-06
2.5050545e-08
1.4811811e-08
7.1960767e-06
2.4433083e-08
1.4438176e-08
7.158157e-06
2.3840655e-08
1.4078939e-08
7.1211518e-06
2.3271933e-08
1.3733287e-08
7.0850258e-06
2.27255e-08
1.3400499e-08
7.0497457e-06
2.2200204e-08
1.3079929e-08
7.0152798e-06
2.1694914e-08
1.2770895e-08
6.9815985e-06
2.1208577e-08
1.2472758e-08
6.9486733e-06
2.0740242e-08
1.2184926e-08
6.9164775e-06
2.0289004e-08
1.1906778e-08
6.8849857e-06
1.9853959e-08
1.1637858e-08
6.8541739e-06
1.9434373e-08
1.1377458e-08
6.8240194e-06
1.9029419e-08
1.1125122e-08
6.7945006e-06
1.8638462e-08
1.0880244e-08
6.7655976e-06
1.8260778e-08
1.0642299e-08
6.7372912e-06
1.7895557e-08
1.0410761e-08
6.7095641e-06
1.7542099e-08
1.0185086e-08
6.6823995e-06
1.7199626e-08
9.9648672e-09
6.6557824e-06
1.68673e-08
9.749842e-09
6.6296983e-06
1.6544124e-08
9.5399832e-09
6.6041331e-06
1.6229266e-08
9.3360208e-09
6.5790714e-06
1.5921964e-08
9.1396896e-09
6.554494e-06
1.5622306e-08
8.9550677e-09
6.5303708e-06
1.5332557e-08
8.7906623e-09
6.5066467e-06
1.5060434e-08
8.6636044e-09
6.4832094e-06
1.4827801e-08
8.6095208e-09
6.4598103e-06
1.4693054e-08
8.7060238e-09
6.4358388e-06
1.4826386e-08
9.1451544e-09
6.4096302e-06
1.5741752e-08
1.0466765e-08
6.3782855e-06
1.802654e-08
1.3318241e-08
3.2300214e-08
2.7923535e-08
0.00010646494
4.1872386e-06
6.4599816e-06
0.0001002019
5.695418e-06
6.6231353e-06
9.3659588e-05
5.7790389e-06
6.2744098e-06
8.7011589e-05
5.6514782e-06
6.0369387e-06
8.0422927e-05
5.366912e-06
5.7173941e-06
7.4094022e-05
4.9022832e-06
5.3063862e-06
6.8167026e-05
4.3278135e-06
4.8516273e-06
6.2722565e-05
3.7178909e-06
4.387032e-06
5.7799049e-05
3.1243144e-06
3.9337144e-06
5.3403345e-05
2.5820689e-06
3.5063329e-06
4.9517402e-05
2.1121062e-06
3.1138299e-06
4.6105482e-05
1.7220197e-06
2.7597474e-06
4.3121558e-05
1.4089354e-06
2.4437429e-06
4.0515558e-05
1.1637552e-06
2.163346e-06
3.8237948e-05
9.7485849e-07
1.9152336e-06
3.6242683e-05
8.3055974e-07
1.6959573e-06
3.4488759e-05
7.2043696e-07
1.5022849e-06
3.2940716e-05
6.3586297e-07
1.3313172e-06
3.1568463e-05
5.7005005e-07
1.1804931e-06
3.0346733e-05
5.1784898e-07
1.0475522e-06
2.9254398e-05
4.7545954e-07
9.3049033e-07
2.8273782e-05
4.4013958e-07
8.2752024e-07
2.7390054e-05
4.0994893e-07
7.3704008e-07
2.6590699e-05
3.8353958e-07
6.5760854e-07
2.5865102e-05
3.599889e-07
5.879307e-07
2.5204198e-05
3.3867629e-07
5.2684262e-07
2.4600205e-05
3.1918358e-07
4.7330349e-07
2.4046429e-05
3.0120194e-07
4.2639017e-07
2.3537073e-05
2.8455208e-07
3.8526715e-07
2.3067119e-05
2.6911102e-07
3.491824e-07
2.2632208e-05
2.5478167e-07
3.1747787e-07
2.2228528e-05
2.4147381e-07
2.8959532e-07
2.1852744e-05
2.2911075e-07
2.6504121e-07
2.1501947e-05
2.1762895e-07
2.4337257e-07
2.1173591e-05
2.0696951e-07
2.2420572e-07
2.0865444e-05
1.9707569e-07
2.0720865e-07
2.0575549e-05
1.8789253e-07
1.9209397e-07
2.0302183e-05
1.7936722e-07
1.7861341e-07
2.0043829e-05
1.7144909e-07
1.665532e-07
1.979915e-05
1.6408982e-07
1.5572941e-07
1.956696e-05
1.5724381e-07
1.4598402e-07
1.934621e-05
1.5086893e-07
1.3718218e-07
1.9135969e-05
1.4492653e-07
1.2920884e-07
1.8935407e-05
1.3937906e-07
1.2196305e-07
1.8743783e-05
1.341923e-07
1.1535762e-07
1.8560435e-05
1.2933507e-07
1.0931726e-07
1.8384766e-05
1.2477908e-07
1.0377717e-07
1.8216241e-05
1.2049853e-07
9.8681289e-08
1.8054377e-05
1.1647014e-07
9.3981318e-08
1.7898734e-05
1.1267291e-07
8.9635436e-08
1.7748917e-05
1.0908822e-07
8.5607024e-08
1.7604563e-05
1.0570003e-07
8.1862425e-08
1.7465345e-05
1.0249338e-07
7.8373282e-08
1.7330962e-05
9.9452979e-08
7.5116985e-08
1.7201138e-05
9.6564369e-08
7.2072737e-08
1.7075619e-05
9.3816641e-08
6.9221134e-08
1.695417e-05
9.120111e-08
6.6545116e-08
1.6836577e-05
8.8709101e-08
6.402956e-08
1.6722638e-05
8.6331956e-08
6.1661044e-08
1.661217e-05
8.4061771e-08
5.9427684e-08
1.6505001e-05
8.189156e-08
5.7318831e-08
1.640097e-05
7.9814914e-08
5.5324839e-08
1.6299929e-05
7.7826154e-08
5.3437145e-08
1.620174e-05
7.5919833e-08
5.1647894e-08
1.6106272e-05
7.4090999e-08
4.995012e-08
1.6013404e-05
7.2334949e-08
4.833736e-08
1.5923022e-05
7.0647708e-08
4.6803888e-08
1.5835019e-05
6.9025699e-08
4.5344268e-08
1.5749294e-05
6.746552e-08
4.395371e-08
1.5665753e-05
6.5963753e-08
4.2627682e-08
1.5584307e-05
6.451733e-08
4.1362175e-08
1.5504871e-05
6.3123402e-08
4.0153325e-08
1.5427365e-05
6.1779302e-08
3.8997784e-08
1.5351716e-05
6.0482532e-08
3.7892251e-08
1.5277852e-05
5.9230821e-08
3.6833846e-08
1.5205705e-05
5.8021957e-08
3.5819721e-08
1.5135212e-05
5.6854024e-08
3.4847375e-08
1.5066313e-05
5.5724999e-08
3.3914345e-08
1.499895e-05
5.4633139e-08
3.3018391e-08
1.493307e-05
5.3576753e-08
3.2157431e-08
1.4868621e-05
5.2554206e-08
3.1329409e-08
1.4805554e-05
5.1563944e-08
3.0532471e-08
1.4743823e-05
5.0604487e-08
2.976469e-08
1.4683386e-05
4.9674272e-08
2.902435e-08
1.4624199e-05
4.8771806e-08
2.8309882e-08
1.4566226e-05
4.7895452e-08
2.7619548e-08
1.4509431e-05
4.7043511e-08
2.6951958e-08
1.4453778e-05
4.6214115e-08
2.6305775e-08
1.4399237e-05
4.5405396e-08
2.5679875e-08
1.4345777e-05
4.4615711e-08
2.507376e-08
1.4293367e-05
4.3844227e-08
2.4487713e-08
1.4241972e-05
4.3092864e-08
2.3923768e-08
1.4191548e-05
4.2369917e-08
2.3387132e-08
1.4142019e-05
4.1699269e-08
2.2889647e-08
1.4093249e-05
4.1141607e-08
2.2456628e-08
1.4044951e-05
4.0844619e-08
2.2146568e-08
1.3996485e-05
4.1169156e-08
2.2123085e-08
1.3946229e-05
4.3012237e-08
2.2985425e-08
1.389015e-05
4.8540224e-08
2.5565809e-08
6.3281518e-08
5.0000895e-08
0.00010603565
2.7876425e-06
6.4750379e-06
0.00010074799
4.4145413e-06
6.5685292e-06
9.5493515e-05
4.8594028e-06
6.1741158e-06
9.0256432e-05
4.930369e-06
5.9581921e-06
8.5101366e-05
4.8311767e-06
5.6908011e-06
8.0102875e-05
4.5561761e-06
5.3445981e-06
7.5322251e-05
4.1469521e-06
4.9614853e-06
7.0803266e-05
3.6678925e-06
4.5689837e-06
6.6576264e-05
3.1701903e-06
4.1811255e-06
6.2660725e-05
2.6900109e-06
3.8075976e-06
5.9065443e-05
2.2519319e-06
3.4554566e-06
5.5788936e-05
1.8697304e-06
3.1287957e-06
5.2820978e-05
1.5477473e-06
2.8291458e-06
5.014479e-05
1.2836302e-06
2.5563139e-06
4.7739304e-05
1.07123e-06
2.3091141e-06
4.5581183e-05
9.0281503e-07
2.0858661e-06
4.3646423e-05
7.7048778e-07
1.884709e-06
4.1911533e-05
6.6697373e-07
1.7037793e-06
4.0354306e-05
5.8598195e-07
1.541295e-06
3.8954268e-05
5.2230224e-07
1.3955849e-06
3.769288e-05
4.7175605e-07
1.265091e-06
3.6553576e-05
4.3107982e-07
1.1483634e-06
3.552169e-05
3.9778205e-07
1.0440533e-06
3.4584322e-05
3.6999885e-07
9.5090832e-07
3.3730181e-05
3.4635986e-07
8.6777017e-07
3.2949411e-05
3.2587761e-07
7.9356871e-07
3.2233419e-05
3.0784046e-07
7.2733487e-07
3.1574711e-05
2.9172985e-07
6.6818104e-07
3.0966769e-05
2.7719266e-07
6.1530128e-07
3.0403928e-05
2.6398098e-07
5.6797021e-07
2.9881258e-05
2.5190847e-07
5.2554317e-07
2.9394455e-05
2.4082713e-07
4.8745002e-07
2.8939761e-05
2.3062162e-07
4.5318326e-07
2.8513895e-05
2.2120156e-07
4.2229389e-07
2.8113985e-05
2.1249194e-07
3.9438676e-07
2.7737518e-05
2.0442796e-07
3.6911489e-07
2.7382285e-05
1.9695195e-07
3.4617383e-07
2.7046344e-05
1.9001177e-07
3.2529681e-07
2.6727982e-05
1.8355994e-07
3.0625042e-07
2.6425689e-05
1.7755273e-07
2.8883086e-07
2.6138123e-05
1.7195002e-07
2.7285985e-07
2.5864094e-05
1.6671515e-07
2.5818186e-07
2.5602546e-05
1.6181453e-07
2.4466089e-07
2.535253e-05
1.5721709e-07
2.3217766e-07
2.51132e-05
1.5289445e-07
2.2062727e-07
2.4883797e-05
1.4882094e-07
2.0991775e-07
2.4663634e-05
1.4497365e-07
1.9996811e-07
2.4452094e-05
1.4133181e-07
1.9070706e-07
2.4248615e-05
1.3787695e-07
1.8207155e-07
2.405269e-05
1.3459265e-07
1.7400572e-07
2.3863854e-05
1.3146462e-07
1.6645991e-07
2.3681684e-05
1.284806e-07
1.593893e-07
2.3505794e-05
1.2562917e-07
1.5275411e-07
2.3335829e-05
1.2289868e-07
1.4651967e-07
2.3171462e-05
1.2027632e-07
1.4065461e-07
2.3012394e-05
1.1775476e-07
1.3513024e-07
2.2858345e-05
1.1532971e-07
1.2992042e-07
2.2709057e-05
1.1299538e-07
1.2500177e-07
2.2564291e-05
1.1074518e-07
1.2035288e-07
2.2423824e-05
1.0857346e-07
1.1595456e-07
2.2287451e-05
1.0647548e-07
1.1178924e-07
2.2154978e-05
1.0444698e-07
1.0784079e-07
2.2026226e-05
1.0248417e-07
1.0409458e-07
2.1901025e-05
1.0058351e-07
1.0053716e-07
2.1779218e-05
9.8741544e-08
9.7156164e-08
2.1660658e-05
9.6954904e-08
9.3940268e-08
2.1545205e-05
9.5221284e-08
9.087906e-08
2.1432729e-05
9.3538782e-08
8.7962791e-08
2.1323107e-05
9.1905295e-08
8.5182615e-08
2.1216222e-05
9.0318496e-08
8.2530176e-08
2.1111965e-05
8.8776392e-08
7.9997884e-08
2.1010233e-05
8.7277112e-08
7.7578643e-08
2.0910927e-05
8.5818966e-08
7.5265865e-08
2.0813956e-05
8.4400325e-08
7.3053413e-08
2.0719232e-05
8.3019686e-08
7.0935634e-08
2.0626671e-05
8.1675641e-08
6.8907195e-08
2.0536195e-05
8.0366819e-08
6.6963104e-08
2.0447729e-05
7.9091982e-08
6.5098735e-08
2.0361203e-05
7.7849823e-08
6.3309727e-08
2.0276548e-05
7.6639215e-08
6.159203e-08
2.0193702e-05
7.5459002e-08
5.9941759e-08
2.0112602e-05
7.4307964e-08
5.8355236e-08
2.0033193e-05
7.3184931e-08
5.6829053e-08
1.9955419e-05
7.2088604e-08
5.5359972e-08
1.9879228e-05
7.1017618e-08
5.3944825e-08
1.9804572e-05
6.9970412e-08
5.2580702e-08
1.9731406e-05
6.8945237e-08
5.1264803e-08
1.9659685e-05
6.7940132e-08
4.9994409e-08
1.9589371e-05
6.6953015e-08
4.8767043e-08
1.9520423e-05
6.5982355e-08
4.7580551e-08
1.9452807e-05
6.5028002e-08
4.6433097e-08
1.9386482e-05
6.4094114e-08
4.5323756e-08
1.9321404e-05
6.3194664e-08
4.4253083e-08
1.9257511e-05
6.2366345e-08
4.3225236e-08
1.9194705e-05
6.1695133e-08
4.2253143e-08
1.9132798e-05
6.1374062e-08
4.1377397e-08
1.9071394e-05
6.1822398e-08
4.0750685e-08
1.9009424e-05
6.3924711e-08
4.105763e-08
1.8944661e-05
6.9304663e-08
4.3998847e-08
7.9170927e-08
7.4661557e-08
0.0001054937
1.9169871e-06
6.4880406e-06
0.00010005365
3.2729596e-06
6.5816334e-06
9.4926077e-05
3.8288995e-06
6.1580776e-06
8.9946373e-05
3.9838109e-06
5.9262629e-06
8.5163276e-05
3.9595077e-06
5.6547657e-06
8.0619137e-05
3.7899368e-06
5.3103784e-06
7.6329462e-05
3.5015547e-06
4.9350725e-06
7.230016e-05
3.1412013e-06
4.5559928e-06
6.8534206e-05
2.7514802e-06
4.1846641e-06
6.5032983e-05
2.3633493e-06
3.8278853e-06
6.1795789e-05
1.9984143e-06
3.490711e-06
5.8818843e-05
1.6703759e-06
3.176301e-06
5.6094718e-05
1.3858295e-06
2.886043e-06
5.3612488e-05
1.1457945e-06
2.6200649e-06
5.1358373e-05
9.4764115e-07
2.3777043e-06
4.9316593e-05
7.8676784e-07
2.1578272e-06
4.7470246e-05
6.5779546e-07
1.9590391e-06
4.5802069e-05
5.553254e-07
1.7798252e-06
4.4295042e-05
4.7437115e-07
1.6186378e-06
4.293283e-05
4.1056665e-07
1.473948e-06
4.1700078e-05
3.6023235e-07
1.3442759e-06
4.0582591e-05
3.2035742e-07
1.2282094e-06
3.956742e-05
2.8853733e-07
1.1244154e-06
3.8642881e-05
2.6289066e-07
1.0316467e-06
3.7798527e-05
2.4196983e-07
9.4874399e-07
3.7025076e-05
2.2467704e-07
8.7465172e-07
3.6314324e-05
2.1018901e-07
8.0840411e-07
3.5659057e-05
1.9788606e-07
7.4911042e-07
3.5052961e-05
1.8731585e-07
6.9597285e-07
3.4490519e-05
1.7814871e-07
6.4827381e-07
3.3966922e-05
1.7013169e-07
6.053744e-07
3.3477973e-05
1.6306727e-07
5.6670868e-07
3.3020016e-05
1.5680296e-07
5.317754e-07
3.2589865e-05
1.5122056e-07
5.0013241e-07
3.218474e-05
1.4622564e-07
4.7139136e-07
3.1802215e-05
1.4174076e-07
4.4521233e-07
3.1440168e-05
1.3770096e-07
4.2129807e-07
3.1096739e-05
1.3405096e-07
3.9938924e-07
3.0770297e-05
1.3074295e-07
3.7925956e-07
3.0459402e-05
1.2773517e-07
3.6071194e-07
3.0162787e-05
1.2499092e-07
3.4357478e-07
2.9879325e-05
1.2247786e-07
3.276985e-07
2.960802e-05
1.2016732e-07
3.1295271e-07
2.934798e-05
1.1803379e-07
2.9922354e-07
2.9098408e-05
1.160546e-07
2.8641138e-07
2.885859e-05
1.1420982e-07
2.7442906e-07
2.8627882e-05
1.1248191e-07
2.6319998e-07
2.8405701e-05
1.1085556e-07
2.5265682e-07
2.819152e-05
1.0931757e-07
2.4274022e-07
2.7984859e-05
1.0785647e-07
2.3339759e-07
2.7785279e-05
1.0646278e-07
2.2458212e-07
2.7592379e-05
1.0512872e-07
2.1625219e-07
2.740579e-05
1.0384733e-07
2.0837037e-07
2.7225174e-05
1.0261117e-07
2.009036e-07
2.705022e-05
1.0140745e-07
1.938226e-07
2.6880641e-05
1.0023383e-07
1.871004e-07
2.6716166e-05
9.9092347e-08
1.8071222e-07
2.6556546e-05
9.7980001e-08
1.7463556e-07
2.6401548e-05
9.6892514e-08
1.6885014e-07
2.6250957e-05
9.5827079e-08
1.6333742e-07
2.610457e-05
9.4781725e-08
1.5808043e-07
2.5962199e-05
9.3754741e-08
1.5306362e-07
2.5823666e-05
9.2744867e-08
1.4827259e-07
2.5688804e-05
9.1751016e-08
1.4369413e-07
2.5557458e-05
9.077176e-08
1.3931597e-07
2.5429481e-05
8.9805156e-08
1.3512693e-07
2.5304734e-05
8.8851448e-08
1.3111647e-07
2.5183087e-05
8.7911198e-08
1.2727466e-07
2.5064416e-05
8.698392e-08
1.2359242e-07
2.4948604e-05
8.6068901e-08
1.200612e-07
2.4835542e-05
8.51658e-08
1.1667303e-07
2.4725124e-05
8.4274341e-08
1.1342048e-07
2.4617252e-05
8.3394293e-08
1.1029655e-07
2.4511832e-05
8.2525494e-08
1.0729479e-07
2.4408775e-05
8.166776e-08
1.0440898e-07
2.4307997e-05
8.0820967e-08
1.0163342e-07
2.4209416e-05
7.9985001e-08
9.8962639e-08
2.4112956e-05
7.9159753e-08
9.6391537e-08
2.4018546e-05
7.8345026e-08
9.3915286e-08
2.3926115e-05
7.7540693e-08
9.1529309e-08
2.3835598e-05
7.6746543e-08
8.9229277e-08
2.3746933e-05
7.5962334e-08
8.7011026e-08
2.366006e-05
7.518764e-08
8.4870731e-08
2.3574922e-05
7.4421977e-08
8.2804535e-08
2.3491466e-05
7.3664611e-08
8.0808899e-08
2.3409641e-05
7.2914619e-08
7.8880352e-08
2.33294e-05
7.2170716e-08
7.7015486e-08
2.3250698e-05
7.1431324e-08
7.5211021e-08
2.3173493e-05
7.0694877e-08
7.3463648e-08
2.3097745e-05
6.996022e-08
7.1770088e-08
2.3023418e-05
6.9227949e-08
7.012704e-08
2.2950477e-05
6.8503495e-08
6.8531174e-08
2.2878889e-05
6.7802852e-08
6.6979704e-08
2.2808619e-05
6.7165032e-08
6.5471572e-08
2.2739625e-05
6.6675231e-08
6.4013352e-08
2.267185e-05
6.6507041e-08
6.26423e-08
2.2605149e-05
6.6990724e-08
6.1532371e-08
2.2538888e-05
6.8686017e-08
6.1499899e-08
2.2471121e-05
7.2226958e-08
6.4845115e-08
7.672283e-08
9.8461315e-08
0.0001051979
1.3340884e-06
6.4961221e-06
9.9496561e-05
2.3731022e-06
6.6011947e-06
9.4262459e-05
2.9019224e-06
6.1610799e-06
8.9251186e-05
3.0856642e-06
5.9094196e-06
8.4493498e-05
3.0947347e-06
5.6224614e-06
8.0033635e-05
2.9846656e-06
5.2651341e-06
7.5876907e-05
2.7790155e-06
4.8792667e-06
7.2014635e-05
2.5106843e-06
4.4927895e-06
6.8436293e-05
2.2128728e-06
4.1169489e-06
6.5131387e-05
1.9107258e-06
3.7575291e-06
6.208941e-05
1.621732e-06
3.4186596e-06
5.9299432e-05
1.3573877e-06
3.1029661e-06
5.6749589e-05
1.1240344e-06
2.8116386e-06
5.4426788e-05
9.2377946e-07
2.5448158e-06
5.2316754e-05
7.5572797e-07
2.3019466e-06
5.0404313e-05
6.1717855e-07
2.0820302e-06
4.8673788e-05
5.045435e-07
1.8837772e-06
4.7109414e-05
4.1397184e-07
1.7057274e-06
4.5695713e-05
3.417365e-07
1.5463363e-06
4.4417792e-05
2.8445145e-07
1.4040359e-06
4.3261575e-05
2.3917112e-07
1.277278e-06
4.2213952e-05
2.0341503e-07
1.1645652e-06
4.1262871e-05
1.7514744e-07
1.0644718e-06
4.039737e-05
1.5273232e-07
9.7565896e-07
3.9607583e-05
1.3487527e-07
8.9688143e-07
3.8884688e-05
1.2055566e-07
8.2701637e-07
3.8220848e-05
1.0901094e-07
7.6501856e-07
3.7609155e-05
9.9633853e-08
7.0994488e-07
3.7043542e-05
9.1977467e-08
6.6095089e-07
3.6518702e-05
8.5705835e-08
6.172829e-07
3.6030009e-05
8.0552369e-08
5.7827309e-07
3.5573433e-05
7.6308292e-08
5.4333414e-07
3.5145475e-05
7.2811282e-08
5.1195029e-07
3.4743091e-05
6.9934145e-08
4.8367024e-07
3.4363641e-05
6.7575473e-08
4.5810065e-07
3.4004828e-05
6.5652901e-08
4.3489997e-07
3.3664659e-05
6.409861e-08
4.137721e-07
3.3341393e-05
6.2855923e-08
3.9446095e-07
3.3033513e-05
6.1877005e-08
3.7674527e-07
3.2739693e-05
6.112112e-08
3.6043424e-07
3.2458768e-05
6.0553084e-08
3.4536329e-07
3.2189712e-05
6.0142655e-08
3.3139056e-07
3.1931622e-05
5.9863653e-08
3.1839377e-07
3.1683696e-05
5.9693141e-08
3.0626734e-07
3.1445219e-05
5.9611219e-08
2.949201e-07
3.1215555e-05
5.9600639e-08
2.8427314e-07
3.0994132e-05
5.9646529e-08
2.7425805e-07
3.0780436e-05
5.9736169e-08
2.6481538e-07
3.0574002e-05
5.9858648e-08
2.5589332e-07
3.0374407e-05
6.0004954e-08
2.4744661e-07
3.0181267e-05
6.0167637e-08
2.3943545e-07
2.9994229e-05
6.0341218e-08
2.3182488e-07
2.9812971e-05
6.052183e-08
2.2458374e-07
2.9637193e-05
6.0704476e-08
2.1768455e-07
2.9466629e-05
6.0867284e-08
2.1110459e-07
2.9301024e-05
6.1016993e-08
2.048218e-07
2.914014e-05
6.1160891e-08
1.988157e-07
2.8983756e-05
6.1294949e-08
1.9306838e-07
2.8831669e-05
6.1415469e-08
1.8756389e-07
2.8683688e-05
6.152094e-08
1.8228767e-07
2.8539633e-05
6.1610578e-08
1.7722635e-07
2.8399336e-05
6.1683767e-08
1.7236782e-07
2.8262639e-05
6.1740468e-08
1.677009e-07
2.8129394e-05
6.1780661e-08
1.6321521e-07
2.7999461e-05
6.1803869e-08
1.5890122e-07
2.7872709e-05
6.1807346e-08
1.5475038e-07
2.7749012e-05
6.1793548e-08
1.5075444e-07
2.7628253e-05
6.1764803e-08
1.469056e-07
2.7510319e-05
6.1720996e-08
1.4319665e-07
2.7395105e-05
6.166213e-08
1.3962086e-07
2.728251e-05
6.1588611e-08
1.3617202e-07
2.7172439e-05
6.1501061e-08
1.328442e-07
2.7064802e-05
6.1399955e-08
1.2963192e-07
2.6959511e-05
6.1285946e-08
1.265299e-07
2.6856486e-05
6.1159536e-08
1.2353325e-07
2.6755649e-05
6.1021311e-08
1.2063731e-07
2.6656924e-05
6.0871862e-08
1.1783765e-07
2.6560242e-05
6.0711706e-08
1.1513011e-07
2.6465535e-05
6.0541373e-08
1.1251077e-07
2.6372738e-05
6.0361323e-08
1.0997579e-07
2.6281791e-05
6.0171931e-08
1.0752159e-07
2.6192636e-05
5.9973532e-08
1.0514472e-07
2.6105215e-05
5.9766312e-08
1.0284181e-07
2.6019477e-05
5.9550258e-08
1.0060971e-07
2.5935371e-05
5.932513e-08
9.8445296e-08
2.585285e-05
5.9090501e-08
9.6345387e-08
2.5771868e-05
5.8845474e-08
9.4306922e-08
2.5692384e-05
5.8589001e-08
9.2326725e-08
2.5614357e-05
5.8319809e-08
9.0401447e-08
2.5537753e-05
5.8037091e-08
8.8527354e-08
2.5462539e-05
5.7741638e-08
8.67002e-08
2.5388689e-05
5.743839e-08
8.4915131e-08
2.5316184e-05
5.7141407e-08
8.3166638e-08
2.5245017e-05
5.6882553e-08
8.144962e-08
2.51752e-05
5.6726044e-08
7.97658e-08
2.510677e-05
5.6787938e-08
7.8149174e-08
2.5039729e-05
5.7251601e-08
7.6780983e-08
2.4973573e-05
5.8330918e-08
7.6510225e-08
2.4906079e-05
5.9989486e-08
7.9732143e-08
6.0715019e-08
1.1287824e-07
0.00010503672
9.0789371e-07
6.5005614e-06
9.9140653e-05
1.6524913e-06
6.6166802e-06
9.3788329e-05
2.0825241e-06
6.1717217e-06
8.8708526e-05
2.2549373e-06
5.91053e-06
8.3909682e-05
2.278404e-06
5.6151748e-06
7.9437109e-05
2.2074821e-06
5.2497564e-06
7.5296201e-05
2.0645348e-06
4.8553893e-06
7.1474034e-05
1.8722543e-06
4.460597e-06
6.7955013e-05
1.6547667e-06
4.0771269e-06
6.4723621e-05
1.4313505e-06
3.7107669e-06
6.1764423e-05
1.2154297e-06
3.3655007e-06
5.9062056e-05
1.015864e-06
3.0438911e-06
5.6601108e-05
8.3782741e-07
2.7471548e-06
5.4365944e-05
6.8344647e-07
2.475497e-06
5.2340648e-05
5.5258528e-07
2.2284383e-06
5.0509125e-05
4.4366546e-07
2.0050361e-06
4.8855299e-05
3.5433456e-07
1.8040352e-06
4.7363353e-05
2.8193589e-07
1.6239821e-06
4.6017963e-05
2.2381347e-07
1.4633127e-06
4.4804503e-05
1.7749384e-07
1.320418e-06
4.3709199e-05
1.407809e-07
1.1936935e-06
4.2719248e-05
1.1179155e-07
1.081575e-06
4.1822875e-05
8.8954553e-08
9.8256583e-07
4.1009364e-05
7.0987992e-08
8.9525473e-07
4.0269054e-05
5.6861828e-08
8.1832384e-07
3.9593306e-05
4.5719125e-08
7.5058473e-07
3.8974405e-05
3.6977854e-08
6.9093438e-07
3.8405585e-05
3.0067371e-08
6.3838634e-07
3.7880869e-05
2.4650841e-08
5.9204241e-07
3.7395029e-05
2.044e-08
5.5110606e-07
3.6943514e-05
1.7190236e-08
5.1487716e-07
3.6522366e-05
1.4716763e-08
4.8273959e-07
3.6128148e-05
1.2874789e-08
4.541539e-07
3.5757883e-05
1.1549911e-08
4.2864942e-07
3.5408991e-05
1.0650771e-08
4.0581705e-07
3.5079238e-05
1.0103622e-08
3.8530228e-07
3.4766689e-05
9.8482553e-09
3.6679878e-07
3.4469668e-05
9.8351121e-09
3.5004234e-07
3.4186716e-05
1.002291e-08
3.3480552e-07
3.3916567e-05
1.037702e-08
3.2089286e-07
3.3658116e-05
1.0868094e-08
3.0813657e-07
3.3410395e-05
1.1470948e-08
2.9639282e-07
3.3172556e-05
1.2164248e-08
2.8553826e-07
3.2943853e-05
1.2929283e-08
2.7546716e-07
3.2723625e-05
1.3750166e-08
2.6608891e-07
3.2511286e-05
1.4613103e-08
2.5732574e-07
3.2306316e-05
1.5506244e-08
2.4911068e-07
3.2108246e-05
1.6419596e-08
2.4138618e-07
3.1916658e-05
1.7344625e-08
2.3410268e-07
3.1731171e-05
1.8274324e-08
2.2721711e-07
3.1551444e-05
1.9203152e-08
2.2069213e-07
3.1377162e-05
2.0127718e-08
2.1449509e-07
3.1208038e-05
2.1048615e-08
2.0859681e-07
3.10438e-05
2.1972782e-08
2.0297053e-07
3.0884232e-05
2.282786e-08
1.9760737e-07
3.0729103e-05
2.3662959e-08
1.9248227e-07
3.05782e-05
2.4490007e-08
1.875738e-07
3.0431331e-05
2.5296272e-08
1.828676e-07
3.0288318e-05
2.6077963e-08
1.7835075e-07
3.0148994e-05
2.6834317e-08
1.7401109e-07
3.0013202e-05
2.7564703e-08
1.6983751e-07
2.9880797e-05
2.8268987e-08
1.6582021e-07
2.975164e-05
2.8947437e-08
1.6195013e-07
2.9625601e-05
2.9600791e-08
1.5821899e-07
2.9502557e-05
3.0228536e-08
1.5461921e-07
2.9382396e-05
3.0823584e-08
1.5114465e-07
2.9265007e-05
3.1393093e-08
1.4778878e-07
2.9150287e-05
3.1939598e-08
1.4454539e-07
2.9038137e-05
3.2461894e-08
1.4140899e-07
2.8928465e-05
3.2960071e-08
1.3837463e-07
2.8821181e-05
3.3434731e-08
1.3543751e-07
2.8716203e-05
3.3886357e-08
1.3259329e-07
2.8613449e-05
3.4315531e-08
1.2983786e-07
2.8512845e-05
3.4722879e-08
1.2716735e-07
2.8414317e-05
3.5108969e-08
1.2457817e-07
2.8317797e-05
3.5474428e-08
1.2206681e-07
2.8223219e-05
3.5819904e-08
1.1963009e-07
2.813052e-05
3.6145923e-08
1.1726494e-07
2.803964e-05
3.6453052e-08
1.1496841e-07
2.7950522e-05
3.6741876e-08
1.1273772e-07
2.7863111e-05
3.7012831e-08
1.1057029e-07
2.7777354e-05
3.7266279e-08
1.0846344e-07
2.7693204e-05
3.7502518e-08
1.0641476e-07
2.761061e-05
3.7721618e-08
1.0442175e-07
2.752953e-05
3.792357e-08
1.0248204e-07
2.744992e-05
3.8108005e-08
1.005931e-07
2.7371738e-05
3.8274297e-08
9.8752317e-08
2.7294949e-05
3.8421543e-08
9.6956932e-08
2.7219516e-05
3.854876e-08
9.5203645e-08
2.714541e-05
3.8655139e-08
9.3488614e-08
2.7072603e-05
3.8741147e-08
9.1806964e-08
2.7001079e-05
3.8810264e-08
9.01523e-08
2.6930832e-05
3.887213e-08
8.851655e-08
2.6861877e-05
3.8947414e-08
8.6890537e-08
2.679426e-05
3.9073554e-08
8.5269208e-08
2.6728065e-05
3.9306975e-08
8.3675936e-08
2.6663337e-05
3.9708348e-08
8.2271173e-08
2.659956e-05
4.0271997e-08
8.1836204e-08
2.6534295e-05
4.0698017e-08
8.4555715e-08
3.9620837e-08
1.1507131e-07
0.00010494757
5.6811081e-07
6.5033076e-06
9.8925416e-05
1.0462983e-06
6.6283517e-06
9.3480449e-05
1.3439845e-06
6.1835066e-06
8.8341777e-05
1.4751323e-06
5.9184763e-06
8.3502084e-05
1.4993911e-06
5.6187065e-06
7.9004057e-05
1.4572411e-06
5.2482679e-06
7.4853978e-05
1.3667382e-06
4.8478757e-06
7.1037378e-05
1.2423973e-06
4.4464569e-06
6.7536063e-05
1.0997693e-06
4.0563127e-06
6.4331998e-05
9.5192357e-07
3.683491e-06
6.1407318e-05
8.0805753e-07
3.3320524e-06
5.8744339e-05
6.7422203e-07
3.0046209e-06
5.6325632e-05
5.5404397e-07
2.7024907e-06
5.4133973e-05
4.4916747e-07
2.4259383e-06
5.2152298e-05
3.5972399e-07
2.174536e-06
5.0363747e-05
2.848451e-07
1.9473718e-06
4.875178e-05
2.2310003e-07
1.7432015e-06
4.7300339e-05
1.7281169e-07
1.5605647e-06
4.5994012e-05
1.3226575e-07
1.3978747e-06
4.4818177e-05
9.9840045e-08
1.2534891e-06
4.3759121e-05
7.4075601e-08
1.1257614e-06
4.2804123e-05
5.3707642e-08
1.0130814e-06
4.1941503e-05
3.7671232e-08
9.1390372e-07
4.1160627e-05
2.5096466e-08
8.267673e-07
4.0451891e-05
1.5294165e-08
7.5030387e-07
3.980679e-05
7.5281604e-09
6.8329174e-07
3.9217543e-05
1.6727506e-09
6.2455205e-07
3.8677513e-05
-3.0331133e-09
5.7313083e-07
3.8180739e-05
-6.6486811e-09
5.2807351e-07
3.7722004e-05
-9.3595373e-09
4.8853449e-07
3.7296777e-05
-1.1371814e-08
4.5378929e-07
3.6901113e-05
-1.2818237e-08
4.2319914e-07
3.6531588e-05
-1.38053e-08
3.9620479e-07
3.6185236e-05
-1.4417489e-08
3.7231875e-07
3.5859491e-05
-1.4721883e-08
3.5111775e-07
3.5552132e-05
-1.4772635e-08
3.3223579e-07
3.5261237e-05
-1.4613934e-08
3.153573e-07
3.4985143e-05
-1.4282167e-08
3.0021089e-07
3.472241e-05
-1.3807684e-08
2.8656379e-07
3.4471787e-05
-1.3215857e-08
2.7421633e-07
3.4232185e-05
-1.2528178e-08
2.6299769e-07
3.4002657e-05
-1.1762812e-08
2.5276176e-07
3.3782373e-05
-1.0935251e-08
2.4338339e-07
3.3570606e-05
-1.0058801e-08
2.3475557e-07
3.3366714e-05
-9.1447291e-09
2.2678672e-07
3.3170132e-05
-8.2028356e-09
2.1939834e-07
3.2980356e-05
-7.2412315e-09
2.1252302e-07
3.279694e-05
-6.2668975e-09
2.0610281e-07
3.2619482e-05
-5.2855225e-09
2.0008786e-07
3.2447623e-05
-4.3018158e-09
1.9443477e-07
3.228104e-05
-3.3190582e-09
1.8910588e-07
3.2119438e-05
-2.3383303e-09
1.8406733e-07
3.1962554e-05
-1.3530508e-09
1.7928649e-07
3.1810075e-05
-2.7632888e-10
1.7472765e-07
3.1661878e-05
5.8585678e-10
1.7043904e-07
3.1517732e-05
1.435624e-09
1.6637295e-07
3.1377429e-05
2.3038338e-09
1.6248959e-07
3.1240792e-05
3.1586388e-09
1.5877484e-07
3.1107656e-05
3.9969848e-09
1.5521717e-07
3.0977867e-05
4.8171668e-09
1.5180547e-07
3.0851284e-05
5.6179773e-09
1.4852966e-07
3.0727774e-05
6.3990439e-09
1.4538076e-07
3.060721e-05
7.1609164e-09
1.4235052e-07
3.0489473e-05
7.9059265e-09
1.394312e-07
3.037445e-05
8.6357861e-09
1.3661577e-07
3.0262049e-05
9.3206862e-09
1.3390395e-07
3.0152163e-05
9.9938183e-09
1.3128565e-07
3.0044697e-05
1.0650403e-08
1.2875512e-07
2.9939564e-05
1.1286762e-08
1.2630828e-07
2.983668e-05
1.1903207e-08
1.2394089e-07
2.9735965e-05
1.2500126e-08
1.2164884e-07
2.9637345e-05
1.3077876e-08
1.1942845e-07
2.9540748e-05
1.3636713e-08
1.1727618e-07
2.9446105e-05
1.4177039e-08
1.1518884e-07
2.9353352e-05
1.4699177e-08
1.131634e-07
2.9262425e-05
1.5203551e-08
1.1119705e-07
2.9173268e-05
1.5690502e-08
1.0928707e-07
2.9085822e-05
1.6160408e-08
1.0743106e-07
2.9000035e-05
1.6613596e-08
1.0562665e-07
2.8915855e-05
1.7050402e-08
1.0387153e-07
2.8833233e-05
1.7471143e-08
1.0216363e-07
2.8752123e-05
1.7875992e-08
1.0050081e-07
2.8672479e-05
1.8265113e-08
9.8881078e-08
2.8594259e-05
1.8638577e-08
9.7302494e-08
2.8517424e-05
1.899626e-08
9.5762962e-08
2.8441934e-05
1.933783e-08
9.4260347e-08
2.8367753e-05
1.9662824e-08
9.2792339e-08
2.8294848e-05
1.9970502e-08
9.1356292e-08
2.8223187e-05
2.0260025e-08
8.9948865e-08
2.8152746e-05
2.0530719e-08
8.8565927e-08
2.8083503e-05
2.078263e-08
8.7201808e-08
2.8015447e-05
2.1017534e-08
8.5848702e-08
2.7948582e-05
2.1240738e-08
8.4495886e-08
2.7882937e-05
2.1462738e-08
8.3129517e-08
2.7818575e-05
2.1699976e-08
8.1736533e-08
2.7755588e-05
2.1969284e-08
8.032438e-08
2.7694014e-05
2.2266151e-08
7.9016082e-08
2.7633299e-05
2.2506282e-08
7.8480658e-08
2.7571004e-05
2.2393417e-08
8.0599433e-08
2.0993085e-08
1.0779947e-07
0.00010489986
2.7443378e-07
6.5049155e-06
9.8802772e-05
5.0716637e-07
6.6362236e-06
9.329591e-05
6.5854977e-07
6.1922972e-06
8.8116302e-05
7.2902548e-07
5.9257148e-06
8.3248198e-05