/*--------------------------------*- C++ -*----------------------------------*\
  =========                 |
  \\      /  F ield         | OpenFOAM: The Open Source CFD Toolbox
   \\    /   O peration     | Website:  https://openfoam.org
    \\  /    A nd           | Version:  7
     \\/     M anipulation  |
\*---------------------------------------------------------------------------*/
FoamFile
{
    version     2.0;
    format      ascii;
    class       surfaceScalarField;
    location    "100/water";
    object      phi;
}
// * * * * * * * * * * * * * * * * * * * * * * * * * * * * * * * * * * * * * //

dimensions      [1 0 -1 0 0 0 0];

internalField   nonuniform List<scalar> 
156660
(
9.9057018e-05
6.0011514e-06
6.0529199e-06
8.6847328e-05
6.0554851e-06
6.1542043e-06
7.5687734e-05
5.5111305e-06
5.6484641e-06
6.5441567e-05
5.0404083e-06
5.2057585e-06
5.6267551e-05
4.4956306e-06
4.6783854e-06
4.8317933e-05
3.8797531e-06
4.0698652e-06
4.1624709e-05
3.2524354e-06
3.4407878e-06
3.6124846e-05
2.6604544e-06
2.8394085e-06
3.1692198e-05
2.1345066e-06
2.2981421e-06
2.8162814e-05
1.6926929e-06
1.8366912e-06
2.5361416e-05
1.3399901e-06
1.4614074e-06
2.3124648e-05
1.0698454e-06
1.1669229e-06
2.1315115e-05
8.6875274e-07
9.4078038e-07
1.9825704e-05
7.2109973e-07
7.6831144e-07
1.857727e-05
6.1248186e-07
6.3595219e-07
1.7513247e-05
5.3125177e-07
5.3277085e-07
1.6593737e-05
4.6879693e-07
4.5071302e-07
1.5790427e-05
4.1913685e-07
3.8417348e-07
1.5082778e-05
3.7829037e-07
3.2935817e-07
1.4455412e-05
3.4367097e-07
2.8369539e-07
1.3896405e-05
3.1361376e-07
2.4539316e-07
1.3396216e-05
2.8704415e-07
2.1314438e-07
1.2947011e-05
2.6326e-07
1.8594499e-07
1.2542233e-05
2.417933e-07
1.6298453e-07
1.2176315e-05
2.2232169e-07
1.4359689e-07
1.1844482e-05
2.0461444e-07
1.2721881e-07
1.1542607e-05
1.8849456e-07
1.1337984e-07
1.1267114e-05
1.7381533e-07
1.0167806e-07
1.101489e-05
1.6046228e-07
9.176101e-08
1.078325e-05
1.4833924e-07
8.330082e-08
1.0569849e-05
1.3734859e-07
7.6052396e-08
1.0372613e-05
1.2738819e-07
6.9848572e-08
1.018973e-05
1.1836764e-07
6.4515099e-08
1.0019629e-05
1.1020408e-07
5.9896892e-08
9.8609382e-06
1.0281884e-07
5.5871906e-08
9.712459e-06
9.6137608e-08
5.2341611e-08
9.5731436e-06
9.0090843e-08
4.922458e-08
9.4420757e-06
8.4614148e-08
4.6453775e-08
9.3184531e-06
7.9648347e-08
4.3974288e-08
9.2015724e-06
7.5139452e-08
4.1741192e-08
9.0908169e-06
7.1037931e-08
3.9717598e-08
8.9856436e-06
6.7300932e-08
3.7872323e-08
8.8855714e-06
6.3894078e-08
3.6178147e-08
8.7901766e-06
6.0779962e-08
3.4614874e-08
8.699084e-06
5.7926078e-08
3.3166513e-08
8.6119604e-06
5.5303677e-08
3.1819895e-08
8.5285089e-06
5.2887437e-08
3.0564123e-08
8.4484638e-06
5.0655109e-08
2.9389911e-08
8.3715871e-06
4.8587163e-08
2.828958e-08
8.297664e-06
4.6666393e-08
2.7256708e-08
8.2265003e-06
4.4877797e-08
2.628581e-08
8.1579233e-06
4.3209204e-08
2.5367847e-08
8.0917764e-06
4.1649599e-08
2.4497305e-08
8.0279142e-06
4.0187668e-08
2.367451e-08
7.9662042e-06
3.8813482e-08
2.2896525e-08
7.9065257e-06
3.7519335e-08
2.2159121e-08
7.8487679e-06
3.6298942e-08
2.1458879e-08
7.7928285e-06
3.5146327e-08
2.0793142e-08
7.738613e-06
3.4055935e-08
2.0159479e-08
7.6860345e-06
3.3022751e-08
1.9555744e-08
7.6350122e-06
3.2042326e-08
1.897999e-08
7.585471e-06
3.1110693e-08
1.8430427e-08
7.5373413e-06
3.0224357e-08
1.7905405e-08
7.4905578e-06
2.9380097e-08
1.7403368e-08
7.4450599e-06
2.8574993e-08
1.6922941e-08
7.4007908e-06
2.7806317e-08
1.6462803e-08
7.3576972e-06
2.707181e-08
1.6021779e-08
7.315729e-06
2.6369399e-08
1.5598767e-08
7.2748392e-06
2.5697145e-08
1.5192675e-08
7.2349833e-06
2.5053252e-08
1.4802526e-08
7.1961199e-06
2.4435987e-08
1.4427438e-08
7.1582095e-06
2.3843856e-08
1.4066573e-08
7.121215e-06
2.3275386e-08
1.3719104e-08
7.0851013e-06
2.2729329e-08
1.3384283e-08
7.0498354e-06
2.2204448e-08
1.3061464e-08
7.0153858e-06
2.1699654e-08
1.274997e-08
6.9817228e-06
2.1213884e-08
1.2449139e-08
6.9488183e-06
2.0746141e-08
1.215835e-08
6.9166456e-06
2.0295673e-08
1.1877047e-08
6.8851796e-06
1.9861432e-08
1.1604581e-08
6.8543964e-06
1.9442747e-08
1.1340457e-08
6.8242735e-06
1.9038829e-08
1.1084073e-08
6.7947897e-06
1.8648935e-08
1.0834832e-08
6.7659252e-06
1.8272339e-08
1.0592272e-08
6.7376611e-06
1.7908363e-08
1.0355751e-08
6.7099802e-06
1.7556225e-08
1.0124802e-08
6.6828661e-06
1.7215089e-08
9.8990322e-09
6.6563038e-06
1.6884144e-08
9.6781534e-09
6.630279e-06
1.6562525e-08
9.4622758e-09
6.6047778e-06
1.6249246e-08
9.2520801e-09
6.5797847e-06
1.5943689e-08
9.0494448e-09
6.5552802e-06
1.5645955e-08
8.8585917e-09
6.531234e-06
1.5358393e-08
8.6879395e-09
6.5075903e-06
1.5089066e-08
8.5546867e-09
6.484236e-06
1.4860014e-08
8.49433e-09
6.4609222e-06
1.4730114e-08
8.5837293e-09
6.43704e-06
1.4869576e-08
9.0125765e-09
6.4109372e-06
1.5789392e-08
1.0313266e-08
6.3797456e-06
1.8075253e-08
1.3115815e-08
3.2228228e-08
2.7494727e-08
0.00010646489
4.1872784e-06
6.4601067e-06
0.00010020185
5.6954189e-06
6.6231046e-06
9.3659538e-05
5.7790326e-06
6.2744103e-06
8.7011539e-05
5.651469e-06
6.0369382e-06
8.0422879e-05
5.3668987e-06
5.7173915e-06
7.4093979e-05
4.9022689e-06
5.3063849e-06
6.8166987e-05
4.3277997e-06
4.8516273e-06
6.272253e-05
3.7178781e-06
4.3870328e-06
5.7799019e-05
3.1243028e-06
3.9337156e-06
5.3403318e-05
2.5820588e-06
3.5063343e-06
4.9517379e-05
2.1120977e-06
3.1138316e-06
4.6105463e-05
1.7220126e-06
2.7597492e-06
4.3121541e-05
1.4089295e-06
2.4437449e-06
4.0515543e-05
1.16375e-06
2.163348e-06
3.8237935e-05
9.7485391e-07
1.9152357e-06
3.6242672e-05
8.3055561e-07
1.6959594e-06
3.4488749e-05
7.2043316e-07
1.502287e-06
3.2940707e-05
6.3585944e-07
1.3313192e-06
3.1568455e-05
5.7004684e-07
1.180495e-06
3.0346726e-05
5.1784607e-07
1.0475539e-06
2.9254391e-05
4.7545694e-07
9.3049187e-07
2.8273777e-05
4.4013727e-07
8.2752155e-07
2.7390049e-05
4.0994689e-07
7.370412e-07
2.6590695e-05
3.8353774e-07
6.5760947e-07
2.5865098e-05
3.5998726e-07
5.8793145e-07
2.5204194e-05
3.386749e-07
5.2684316e-07
2.4600202e-05
3.1918232e-07
4.7330388e-07
2.4046426e-05
3.0120076e-07
4.2639048e-07
2.353707e-05
2.8455103e-07
3.8526737e-07
2.3067117e-05
2.6911008e-07
3.4918254e-07
2.2632207e-05
2.5478084e-07
3.1747795e-07
2.2228527e-05
2.4147308e-07
2.8959537e-07
2.1852743e-05
2.2911006e-07
2.6504125e-07
2.1501946e-05
2.1762835e-07
2.4337258e-07
2.117359e-05
2.0696902e-07
2.2420569e-07
2.0865444e-05
1.9707524e-07
2.0720863e-07
2.0575549e-05
1.8789215e-07
1.9209393e-07
2.0302182e-05
1.7936689e-07
1.7861338e-07
2.0043829e-05
1.7144882e-07
1.6655319e-07
1.9799149e-05
1.640896e-07
1.5572934e-07
1.956696e-05
1.5724364e-07
1.4598395e-07
1.934621e-05
1.5086885e-07
1.3718207e-07
1.9135969e-05
1.4492645e-07
1.292087e-07
1.8935407e-05
1.3937906e-07
1.219629e-07
1.8743783e-05
1.3419235e-07
1.1535739e-07
1.8560434e-05
1.2933524e-07
1.0931696e-07
1.8384766e-05
1.2477932e-07
1.037768e-07
1.8216241e-05
1.204989e-07
9.8680885e-08
1.8054377e-05
1.1647063e-07
9.3980827e-08
1.7898735e-05
1.1267352e-07
8.9634827e-08
1.7748917e-05
1.0908895e-07
8.5606294e-08
1.7604564e-05
1.0570093e-07
8.1861629e-08
1.7465347e-05
1.0249442e-07
7.8372374e-08
1.7330964e-05
9.9454185e-08
7.5115941e-08
1.720114e-05
9.6565723e-08
7.2071509e-08
1.7075622e-05
9.3818122e-08
6.921974e-08
1.6954175e-05
9.120267e-08
6.6543476e-08
1.6836583e-05
8.8710763e-08
6.402763e-08
1.6722646e-05
8.6333655e-08
6.1658842e-08
1.661218e-05
8.4063503e-08
5.9425103e-08
1.6505013e-05
8.189327e-08
5.7315738e-08
1.6400986e-05
7.9816595e-08
5.5321211e-08
1.629995e-05
7.7827748e-08
5.3432839e-08
1.6201766e-05
7.5921317e-08
5.164285e-08
1.6106305e-05
7.4092322e-08
4.9944119e-08
1.6013444e-05
7.2336056e-08
4.8330312e-08
1.5923072e-05
7.0648529e-08
4.6795501e-08
1.5835081e-05
6.9026238e-08
4.5334445e-08
1.574937e-05
6.746576e-08
4.3942147e-08
1.5665846e-05
6.596368e-08
4.2614159e-08
1.5584418e-05
6.4516928e-08
4.1346315e-08
1.5505005e-05
6.3122657e-08
4.0134897e-08
1.5427526e-05
6.1778185e-08
3.8976335e-08
1.5351906e-05
6.0481097e-08
3.7867443e-08
1.5278077e-05
5.9229037e-08
3.6805251e-08
1.5205969e-05
5.8019891e-08
3.5786858e-08
1.5135522e-05
5.685157e-08
3.4809751e-08
1.5066675e-05
5.5722254e-08
3.3871492e-08
1.499937e-05
5.4630037e-08
3.2969678e-08
1.4933556e-05
5.3573353e-08
3.2102239e-08
1.4869182e-05
5.2550389e-08
3.1267044e-08
1.4806199e-05
5.1559723e-08
3.0462189e-08
1.4744562e-05
5.0599817e-08
2.9685714e-08
1.4684229e-05
4.9669117e-08
2.8935869e-08
1.4625161e-05
4.8766085e-08
2.8210955e-08
1.4567319e-05
4.7889038e-08
2.7509234e-08
1.4510668e-05
4.7036438e-08
2.6829185e-08
1.4455177e-05
4.6206326e-08
2.6169461e-08
1.4400813e-05
4.5397e-08
2.5528912e-08
1.4347549e-05
4.4606832e-08
2.4906989e-08
1.4295353e-05
4.3835248e-08
2.4303984e-08
1.4244193e-05
4.3084308e-08
2.3721947e-08
1.4194023e-05
4.236282e-08
2.3165992e-08
1.4144769e-05
4.169533e-08
2.2647815e-08
1.4096293e-05
4.1143306e-08
2.2192592e-08
1.404831e-05
4.0855591e-08
2.1857967e-08
1.400018e-05
4.119348e-08
2.1805466e-08
1.3950292e-05
4.3050565e-08
2.2626918e-08
1.3894647e-05
4.8578561e-08
2.5141475e-08
6.3262933e-08
4.9215014e-08
0.00010603554
2.7876474e-06
6.4751768e-06
0.00010074792
4.4145509e-06
6.5684917e-06
9.5493443e-05
4.8594026e-06
6.1741065e-06
9.0256367e-05
4.9303642e-06
5.9581808e-06
8.510131e-05
4.8311693e-06
5.6907868e-06
8.0102826e-05
4.5561674e-06
5.3445849e-06
7.5322209e-05
4.1469431e-06
4.9614738e-06
7.0803229e-05
3.667884e-06
4.5689736e-06
6.6576233e-05
3.1701825e-06
4.1811165e-06
6.2660698e-05
2.6900041e-06
3.8075897e-06
5.906542e-05
2.251926e-06
3.4554499e-06
5.5788917e-05
1.8697255e-06
3.12879e-06
5.2820963e-05
1.5477431e-06
2.8291409e-06
5.0144776e-05
1.2836266e-06
2.5563096e-06
4.7739293e-05
1.0712269e-06
2.3091103e-06
4.5581174e-05
9.0281228e-07
2.0858628e-06
4.3646415e-05
7.7048527e-07
1.8847062e-06
4.1911527e-05
6.6697144e-07
1.7037768e-06
4.0354301e-05
5.8597986e-07
1.5412929e-06
3.8954263e-05
5.2230023e-07
1.3955831e-06
3.7692877e-05
4.7175424e-07
1.2650895e-06
3.6553573e-05
4.3107817e-07
1.1483622e-06
3.5521688e-05
3.977805e-07
1.0440523e-06
3.458432e-05
3.6999737e-07
9.5090748e-07
3.373018e-05
3.4635852e-07
8.6776949e-07
3.294941e-05
3.2587639e-07
7.9356815e-07
3.2233418e-05
3.0783935e-07
7.2733437e-07
3.157471e-05
2.9172881e-07
6.6818069e-07
3.0966768e-05
2.7719171e-07
6.1530096e-07
3.0403928e-05
2.6398016e-07
5.6796995e-07
2.9881258e-05
2.519077e-07
5.2554295e-07
2.9394455e-05
2.4082641e-07
4.8744983e-07
2.8939761e-05
2.3062095e-07
4.5318317e-07
2.8513895e-05
2.2120096e-07
4.222938e-07
2.8113986e-05
2.1249146e-07
3.943867e-07
2.7737518e-05
2.0442756e-07
3.6911487e-07
2.7382285e-05
1.969516e-07
3.461738e-07
2.7046344e-05
1.9001153e-07
3.2529674e-07
2.6727982e-05
1.8355978e-07
3.062504e-07
2.6425688e-05
1.7755269e-07
2.8883081e-07
2.6138122e-05
1.7195004e-07
2.7285975e-07
2.5864094e-05
1.6671529e-07
2.5818169e-07
2.5602545e-05
1.6181477e-07
2.4466077e-07
2.5352529e-05
1.5721741e-07
2.3217745e-07
2.51132e-05
1.528949e-07
2.2062703e-07
2.4883796e-05
1.4882156e-07
2.0991747e-07
2.4663633e-05
1.4497437e-07
1.9996781e-07
2.4452092e-05
1.4133264e-07
1.9070673e-07
2.4248614e-05
1.378779e-07
1.820712e-07
2.4052688e-05
1.3459366e-07
1.7400535e-07
2.3863852e-05
1.3146568e-07
1.664595e-07
2.3681683e-05
1.2848174e-07
1.5938885e-07
2.3505793e-05
1.2563039e-07
1.5275373e-07
2.3335828e-05
1.2289988e-07
1.4651925e-07
2.3171462e-05
1.2027754e-07
1.4065414e-07
2.3012394e-05
1.1775589e-07
1.3512972e-07
2.2858346e-05
1.1533075e-07
1.2991988e-07
2.270906e-05
1.1299627e-07
1.2500106e-07
2.2564296e-05
1.1074584e-07
1.2035203e-07
2.2423832e-05
1.0857387e-07
1.1595352e-07
2.2287462e-05
1.0647552e-07
1.1178792e-07
2.2154993e-05
1.0444657e-07
1.0783915e-07
2.2026244e-05
1.0248318e-07
1.0409253e-07
2.1901049e-05
1.0058189e-07
1.0053461e-07
2.1779249e-05
9.8739143e-08
9.7153023e-08
2.1660698e-05
9.69516e-08
9.3936429e-08
2.1545255e-05
9.5216984e-08
9.0874345e-08
2.1432791e-05
9.3533306e-08
8.795713e-08
2.1323182e-05
9.189849e-08
8.5175771e-08
2.1216314e-05
9.0310236e-08
8.252202e-08
2.1112076e-05
8.8766487e-08
7.9988195e-08
2.1010366e-05
8.7265341e-08
7.756722e-08
2.0911087e-05
8.580511e-08
7.525251e-08
2.0814146e-05
8.4384164e-08
7.3037899e-08
2.0719456e-05
8.3000979e-08
7.0917683e-08
2.0626935e-05
8.1654057e-08
6.8886502e-08
2.0536506e-05
8.0342042e-08
6.6939411e-08
2.0448093e-05
7.9063569e-08
6.5071723e-08
2.0361626e-05
7.7817403e-08
6.3279015e-08
2.027704e-05
7.6602307e-08
6.1557218e-08
2.0194271e-05
7.5417011e-08
5.9902408e-08
2.011326e-05
7.4260346e-08
5.8310937e-08
2.0033949e-05
7.3130996e-08
5.6779266e-08
1.9956286e-05
7.2027702e-08
5.5304117e-08
1.9880221e-05
7.0949001e-08
5.3882309e-08
1.9805706e-05
6.9893317e-08
5.2510835e-08
1.9732697e-05
6.8858899e-08
5.118683e-08
1.9661152e-05
6.7843816e-08
4.9907546e-08
1.9591032e-05
6.684615e-08
4.8670417e-08
1.9522302e-05
6.586438e-08
4.7473272e-08
1.9454924e-05
6.489869e-08
4.6314189e-08
1.9388863e-05
6.3953653e-08
4.5192197e-08
1.9324074e-05
6.3043934e-08
4.4107806e-08
1.9260497e-05
6.2207233e-08
4.3065002e-08
1.9198033e-05
6.1531115e-08
4.2076495e-08
1.9136495e-05
6.1210436e-08
4.1182297e-08
1.9075489e-05
6.1666622e-08
4.053339e-08
1.9013947e-05
6.3785181e-08
4.0807292e-08
1.8949648e-05
6.9191277e-08
4.3685347e-08
7.9126807e-08
7.3975558e-08
0.00010549357
1.9169892e-06
6.4881814e-06
0.00010005356
3.2729695e-06
6.581591e-06
9.4925992e-05
3.8289033e-06
6.1580636e-06
8.9946297e-05
3.9838103e-06
5.9262486e-06
8.5163212e-05
3.9595052e-06
5.6547493e-06
8.0619082e-05
3.7899332e-06
5.3103638e-06
7.6329415e-05
3.5015505e-06
4.9350602e-06
7.2300119e-05
3.1411971e-06
4.5559822e-06
6.8534171e-05
2.7514763e-06
4.1846547e-06
6.5032952e-05
2.3633457e-06
3.827877e-06
6.1795763e-05
1.9984113e-06
3.4907038e-06
5.8818821e-05
1.6703734e-06
3.1762946e-06
5.6094699e-05
1.3858273e-06
2.8860373e-06
5.3612473e-05
1.1457927e-06
2.6200599e-06
5.1358361e-05
9.4763969e-07
2.3776999e-06
4.9316583e-05
7.8676652e-07
2.1578233e-06
4.7470238e-05
6.5779427e-07
1.9590357e-06
4.5802063e-05
5.5532429e-07
1.7798223e-06
4.4295038e-05
4.7437008e-07
1.6186353e-06
4.2932826e-05
4.1056567e-07
1.4739458e-06
4.1700075e-05
3.602314e-07
1.344274e-06
4.0582589e-05
3.2035646e-07
1.2282079e-06
3.9567419e-05
2.8853641e-07
1.1244141e-06
3.8642881e-05
2.6288976e-07
1.0316456e-06
3.7798527e-05
2.4196901e-07
9.4874313e-07
3.7025077e-05
2.2467622e-07
8.7465099e-07
3.6314324e-05
2.101882e-07
8.0840354e-07
3.5659058e-05
1.9788533e-07
7.4910994e-07
3.5052962e-05
1.8731512e-07
6.9597243e-07
3.4490521e-05
1.7814802e-07
6.4827349e-07
3.3966923e-05
1.7013107e-07
6.0537415e-07
3.3477974e-05
1.6306669e-07
5.6670846e-07
3.3020018e-05
1.5680245e-07
5.3177529e-07
3.2589866e-05
1.512201e-07
5.0013232e-07
3.2184741e-05
1.4622524e-07
4.7139129e-07
3.1802216e-05
1.4174043e-07
4.4521225e-07
3.1440169e-05
1.3770077e-07
4.2129802e-07
3.109674e-05
1.3405084e-07
3.9938915e-07
3.0770298e-05
1.3074294e-07
3.7925948e-07
3.0459403e-05
1.2773529e-07
3.6071188e-07
3.0162787e-05
1.2499117e-07
3.4357467e-07
2.9879326e-05
1.2247823e-07
3.2769836e-07
2.960802e-05
1.2016787e-07
3.1295257e-07
2.934798e-05
1.1803451e-07
2.9922337e-07
2.9098408e-05
1.1605547e-07
2.864112e-07
2.885859e-05
1.142108e-07
2.7442881e-07
2.8627882e-05
1.1248302e-07
2.6319976e-07
2.8405701e-05
1.1085681e-07
2.5265666e-07
2.819152e-05
1.0931887e-07
2.4274006e-07
2.7984858e-05
1.0785779e-07
2.3339746e-07
2.7785278e-05
1.0646407e-07
2.2458208e-07
2.7592378e-05
1.0512994e-07
2.1625218e-07
2.7405789e-05
1.0384842e-07
2.0837048e-07
2.7225173e-05
1.0261212e-07
2.0090385e-07
2.7050219e-05
1.0140819e-07
1.9382289e-07
2.688064e-05
1.0023425e-07
1.8710081e-07
2.6716166e-05
9.9092406e-08
1.8071273e-07
2.6556547e-05
9.7979614e-08
1.7463608e-07
2.640155e-05
9.6891576e-08
1.6885062e-07
2.6250961e-05
9.5825509e-08
1.6333786e-07
2.6104576e-05
9.4779361e-08
1.580808e-07
2.5962207e-05
9.3751527e-08
1.5306384e-07
2.5823677e-05
9.2740687e-08
1.4827263e-07
2.5688819e-05
9.1745675e-08
1.436939e-07
2.5557478e-05
9.0765127e-08
1.3931539e-07
2.5429507e-05
8.9797068e-08
1.3512594e-07
2.5304767e-05
8.884164e-08
1.3111498e-07
2.5183128e-05
8.7899459e-08
1.2727264e-07
2.5064467e-05
8.6969922e-08
1.2358976e-07
2.4948667e-05
8.6052371e-08
1.2005779e-07
2.4835618e-05
8.5146401e-08
1.1666883e-07
2.4725217e-05
8.4251693e-08
1.134154e-07
2.4617363e-05
8.3367931e-08
1.1029059e-07
2.4511965e-05
8.2494914e-08
1.0728785e-07
2.4408932e-05
8.1632411e-08
1.0440101e-07
2.4308182e-05
8.0780183e-08
1.0162435e-07
2.4209633e-05
7.9938018e-08
9.8952465e-08
2.4113211e-05
7.9105707e-08
9.6380187e-08
2.4018843e-05
7.8282948e-08
9.3902739e-08
2.392646e-05
7.7469597e-08
9.1515512e-08
2.3835997e-05
7.6665243e-08
8.9214208e-08
2.3747394e-05
7.5869533e-08
8.6994632e-08
2.366059e-05
7.5081952e-08
8.4852906e-08
2.357553e-05
7.4301942e-08
8.2785211e-08
2.3492163e-05
7.3528646e-08
8.0787962e-08
2.3410437e-05
7.2760973e-08
7.8857649e-08
2.3330308e-05
7.1997645e-08
7.6990884e-08
2.325173e-05
7.1237141e-08
7.5184321e-08
2.3174664e-05
7.0477874e-08
7.3434683e-08
2.3099071e-05
6.9718792e-08
7.173866e-08
2.3024916e-05
6.8960841e-08
7.0092961e-08
2.2952165e-05
6.8209824e-08
6.8494291e-08
2.2880787e-05
6.7482618e-08
6.6939691e-08
2.2810747e-05
6.6819428e-08
6.5428109e-08
2.2742004e-05
6.6307463e-08
6.3965996e-08
2.2674501e-05
6.6123291e-08
6.2590065e-08
2.2608094e-05
6.6601578e-08
6.1472686e-08
2.2542145e-05
6.8309629e-08
6.1423542e-08
2.2474713e-05
7.1900787e-08
6.4722664e-08
7.6551472e-08
9.8043217e-08
0.00010519776
1.3340902e-06
6.4962655e-06
9.9496462e-05
2.3731088e-06
6.6011546e-06
9.426237e-05
2.9019259e-06
6.1610691e-06
8.9251106e-05
3.0856644e-06
5.9094095e-06
8.4493429e-05
3.0947334e-06
5.6224492e-06
8.0033575e-05
2.9846634e-06
5.2651234e-06
7.5876855e-05
2.7790128e-06
4.8792579e-06
7.2014589e-05
2.5106815e-06
4.4927818e-06
6.8436253e-05
2.21287e-06
4.1169421e-06
6.5131353e-05
1.9107233e-06
3.757523e-06
6.208938e-05
1.6217299e-06
3.4186541e-06
5.9299406e-05
1.3573859e-06
3.1029611e-06
5.6749567e-05
1.1240329e-06
2.8116342e-06
5.4426769e-05
9.2377829e-07
2.5448117e-06
5.2316739e-05
7.5572706e-07
2.3019429e-06
5.0404301e-05
6.171778e-07
2.082027e-06
4.8673778e-05
5.0454282e-07
1.8837743e-06
4.7109406e-05
4.1397123e-07
1.7057248e-06
4.5695706e-05
3.4173596e-07
1.546334e-06
4.4417787e-05
2.8445097e-07
1.4040339e-06
4.3261572e-05
2.3917062e-07
1.2772763e-06
4.221395e-05
2.0341454e-07
1.1645636e-06
4.1262869e-05
1.7514694e-07
1.0644705e-06
4.0397369e-05
1.5273183e-07
9.7565779e-07
3.9607583e-05
1.3487479e-07
8.9688042e-07
3.8884688e-05
1.2055519e-07
8.270155e-07
3.8220848e-05
1.0901045e-07
7.6501779e-07
3.7609156e-05
9.9633432e-08
7.0994423e-07
3.7043544e-05
9.1977046e-08
6.6095033e-07
3.6518704e-05
8.5705413e-08
6.1728237e-07
3.603001e-05
8.0552014e-08
5.782727e-07
3.5573435e-05
7.6307924e-08
5.433338e-07
3.5145477e-05
7.2810965e-08
5.1195001e-07
3.4743093e-05
6.9933865e-08
4.8366999e-07
3.4363642e-05
6.7575243e-08
4.5810043e-07
3.400483e-05
6.5652716e-08
4.3489975e-07
3.3664661e-05
6.4098498e-08
4.1377191e-07
3.3341395e-05
6.2855938e-08
3.9446079e-07
3.3033515e-05
6.1877144e-08
3.7674511e-07
3.2739695e-05
6.1121319e-08
3.6043405e-07
3.245877e-05
6.0553459e-08
3.4536312e-07
3.2189714e-05
6.0143202e-08
3.3139037e-07
3.1931624e-05
5.9864354e-08
3.1839359e-07
3.1683698e-05
5.9694023e-08
3.0626716e-07
3.1445221e-05
5.9612248e-08
2.9491994e-07
3.1215557e-05
5.9601779e-08
2.8427298e-07
3.0994134e-05
5.9647833e-08
2.7425789e-07
3.0780438e-05
5.9737514e-08
2.6481526e-07
3.0574004e-05
5.9860085e-08
2.5589329e-07
3.0374408e-05
6.0006337e-08
2.4744664e-07
3.0181268e-05
6.0168967e-08
2.3943561e-07
2.999423e-05
6.0342438e-08
2.3182512e-07
2.9812972e-05
6.0522779e-08
2.2458411e-07
2.9637194e-05
6.0705156e-08
2.1768501e-07
2.9466629e-05
6.086757e-08
2.1110517e-07
2.9301024e-05
6.1016797e-08
2.0482253e-07
2.914014e-05
6.1160142e-08
1.9881651e-07
2.8983757e-05
6.1293569e-08
1.9306927e-07
2.883167e-05
6.1413341e-08
1.875648e-07
2.8683689e-05
6.1517968e-08
1.8228855e-07
2.8539635e-05
6.1606606e-08
1.7722724e-07
2.8399339e-05
6.1678737e-08
1.7236866e-07
2.8262644e-05
6.1734176e-08
1.6770157e-07
2.8129401e-05
6.1773e-08
1.6321564e-07
2.799947e-05
6.1794637e-08
1.5890139e-07
2.787272e-05
6.1796406e-08
1.5475022e-07
2.7749027e-05
6.1780616e-08
1.5075389e-07
2.7628273e-05
6.1749573e-08
1.469046e-07
2.7510344e-05
6.1703152e-08
1.4319516e-07
2.7395137e-05
6.1641324e-08
1.3961887e-07
2.7282549e-05
6.1564439e-08
1.3616944e-07
2.7172487e-05
6.1473004e-08
1.3284112e-07
2.7064859e-05
6.136749e-08
1.2962827e-07
2.695958e-05
6.1248343e-08
1.2652578e-07
2.6856567e-05
6.1116085e-08
1.2352865e-07
2.6755744e-05
6.0971123e-08
1.2063229e-07
2.6657036e-05
6.081396e-08
1.1783231e-07
2.6560372e-05
6.0644956e-08
1.1512456e-07
2.6465685e-05
6.0464523e-08
1.1250509e-07
2.6372912e-05
6.0272954e-08
1.0997012e-07
2.6281991e-05
6.0070496e-08
1.0751606e-07
2.6192863e-05
5.985733e-08
1.051395e-07
2.6105475e-05
5.9633441e-08
1.0283711e-07
2.6019773e-05
5.9398686e-08
1.0060562e-07
2.5935707e-05
5.915277e-08
9.8441942e-08
2.585323e-05
5.8894953e-08
9.6342997e-08
2.5772297e-05
5.8624412e-08
9.4305699e-08
2.5692868e-05
5.8339907e-08
9.2326871e-08
2.5614902e-05
5.8040211e-08
9.040311e-08
2.5538366e-05
5.7724579e-08
8.8530839e-08
2.5463227e-05
5.7393999e-08
8.6705854e-08
2.5389459e-05
5.7053922e-08
8.4923276e-08
2.5317045e-05
5.6719139e-08
8.3177596e-08
2.5245978e-05
5.6422814e-08
8.1463772e-08
2.5176271e-05
5.6231314e-08
7.9783441e-08
2.510796e-05
5.6264372e-08
7.8170219e-08
2.5041045e-05
5.6711557e-08
7.6804053e-08
2.4975028e-05
5.7798397e-08
7.6528625e-08
2.490769e-05
5.951488e-08
7.9723691e-08
6.0414831e-08
1.1268083e-07
0.00010503658
9.0789505e-07
6.5007059e-06
9.9140551e-05
1.6524956e-06
6.6166408e-06
9.3788238e-05
2.082527e-06
6.1717115e-06
8.8708444e-05
2.2549382e-06
5.9105203e-06
8.3909611e-05
2.2784036e-06
5.6151628e-06
7.9437048e-05
2.207481e-06
5.2497458e-06
7.5296147e-05
2.0645334e-06
4.8553804e-06
7.1473986e-05
1.8722527e-06
4.4605891e-06
6.7954971e-05
1.6547651e-06
4.0771199e-06
6.4723585e-05
1.4313491e-06
3.7107606e-06
6.1764391e-05
1.2154285e-06
3.365495e-06
5.9062028e-05
1.0158631e-06
3.043886e-06
5.6601084e-05
8.3782671e-07
2.7471502e-06
5.4365924e-05
6.8344596e-07
2.4754929e-06
5.2340631e-05
5.5258489e-07
2.2284347e-06
5.0509111e-05
4.436652e-07
2.0050328e-06
4.8855287e-05
3.5433437e-07
1.8040323e-06
4.7363343e-05
2.8193574e-07
1.6239796e-06
4.6017955e-05
2.2381333e-07
1.4633105e-06
4.4804496e-05
1.7749371e-07
1.3204161e-06
4.3709194e-05
1.4078075e-07
1.1936917e-06
4.2719244e-05
1.1179138e-07
1.0815735e-06
4.1822872e-05
8.8954383e-08
9.8256452e-07
4.1009363e-05
7.0987799e-08
8.9525357e-07
4.0269053e-05
5.6861592e-08
8.183228e-07
3.9593305e-05
4.5718845e-08
7.5058392e-07
3.8974404e-05
3.6977573e-08
6.9093366e-07
3.8405585e-05
3.006709e-08
6.3838571e-07
3.788087e-05
2.4650575e-08
5.9204188e-07
3.739503e-05
2.0439702e-08
5.511056e-07
3.6943515e-05
1.719002e-08
5.1487677e-07
3.6522367e-05
1.4716488e-08
4.8273928e-07
3.612815e-05
1.2874566e-08
4.5415366e-07
3.5757885e-05
1.1549745e-08
4.2864922e-07
3.5408992e-05
1.0650645e-08
4.0581681e-07
3.507924e-05
1.0103557e-08
3.8530208e-07
3.4766691e-05
9.8482202e-09
3.667986e-07
3.446967e-05
9.8351232e-09
3.500422e-07
3.4186719e-05
1.0023051e-08
3.3480538e-07
3.391657e-05
1.0377288e-08
3.2089273e-07
3.3658118e-05
1.0868446e-08
3.0813645e-07
3.3410397e-05
1.1471475e-08
2.963927e-07
3.3172559e-05
1.2164886e-08
2.8553816e-07
3.2943856e-05
1.2930092e-08
2.7546709e-07
3.2723628e-05
1.37511e-08
2.6608883e-07
3.251129e-05
1.4614158e-08
2.5732564e-07
3.230632e-05
1.5507404e-08
2.4911065e-07
3.210825e-05
1.6420808e-08
2.4138624e-07
3.1916662e-05
1.7345879e-08
2.3410278e-07
3.1731175e-05
1.8275545e-08
2.2721731e-07
3.1551447e-05
1.920432e-08
2.2069244e-07
3.1377165e-05
2.0128711e-08
2.1449548e-07
3.1208042e-05
2.1049387e-08
2.0859731e-07
3.1043802e-05
2.1973176e-08
2.0297113e-07
3.0884234e-05
2.2827839e-08
1.976081e-07
3.0729105e-05
2.3662451e-08
1.9248309e-07
3.0578202e-05
2.44889e-08
1.8757471e-07
3.0431332e-05
2.5294492e-08
1.8286855e-07
3.0288318e-05
2.6075436e-08
1.7835165e-07
3.0148994e-05
2.6830871e-08
1.7401192e-07
3.0013202e-05
2.7560307e-08
1.6983835e-07
2.9880796e-05
2.8263473e-08
1.658209e-07
2.9751639e-05
2.8940731e-08
1.6195059e-07
2.96256e-05
2.9592701e-08
1.5821916e-07
2.9502557e-05
3.0219049e-08
1.5461908e-07
2.9382396e-05
3.0812456e-08
1.5114417e-07
2.9265009e-05
3.1380077e-08
1.4778786e-07
2.915029e-05
3.1924376e-08
1.4454399e-07
2.9038142e-05
3.244428e-08
1.4140714e-07
2.8928471e-05
3.2939693e-08
1.3837219e-07
2.882119e-05
3.3411189e-08
1.3543452e-07
2.8716214e-05
3.3859205e-08
1.3258979e-07
2.8613464e-05
3.4284201e-08
1.2983382e-07
2.8512862e-05
3.468671e-08
1.2716285e-07
2.8414338e-05
3.5067251e-08
1.2457322e-07
2.8317821e-05
3.5426265e-08
1.220615e-07
2.8223247e-05
3.5764252e-08
1.1962454e-07
2.8130551e-05
3.6081684e-08
1.1725925e-07
2.8039673e-05
3.6379035e-08
1.1496276e-07
2.7950558e-05
3.665659e-08
1.1273225e-07
2.7863148e-05
3.6914673e-08
1.105651e-07
2.7777393e-05
3.7153538e-08
1.0845876e-07
2.7693243e-05
3.7373306e-08
1.0641071e-07
2.7610649e-05
3.7573908e-08
1.0441858e-07
2.7529567e-05
3.7755083e-08
1.024799e-07
2.7449953e-05
3.7916408e-08
1.0059227e-07
2.7371768e-05
3.8057062e-08
9.8752987e-08
2.7294972e-05
3.8176137e-08
9.6959395e-08
2.7219532e-05
3.8272495e-08
9.5208227e-08
2.7145415e-05
3.8345396e-08
9.3495687e-08
2.7072597e-05
3.8395556e-08
9.1816929e-08
2.7001058e-05
3.8426652e-08
9.0165655e-08
2.6930795e-05
3.844912e-08
8.8533845e-08
2.686182e-05
3.8484738e-08
8.6912391e-08
2.6794182e-05
3.857309e-08
8.5296192e-08
2.6727964e-05
3.8774109e-08
8.3708406e-08
2.6663212e-05
3.9154917e-08
8.2308593e-08
2.6599414e-05
3.9721746e-08
8.1874488e-08
2.6534149e-05
4.0198767e-08
8.4580998e-08
3.927004e-08
1.1500012e-07
0.00010494743
5.6811177e-07
6.5034526e-06
9.8925312e-05
1.0463009e-06
6.6283125e-06
9.3480356e-05
1.3439864e-06
6.1834965e-06
8.8341694e-05
1.4751331e-06
5.9184668e-06
8.3502012e-05
1.4993911e-06
5.6186948e-06
7.9003994e-05
1.4572406e-06
5.2482576e-06
7.4853923e-05
1.3667375e-06
4.8478672e-06
7.103733e-05
1.2423964e-06
4.4464496e-06
6.753602e-05
1.0997684e-06
4.0563063e-06
6.4331961e-05
9.5192275e-07
3.6834852e-06
6.1407286e-05
8.0805683e-07
3.3320473e-06
5.8744311e-05
6.7422146e-07
3.0046163e-06
5.6325608e-05
5.5404353e-07
2.7024866e-06
5.4133952e-05
4.4916714e-07
2.4259346e-06
5.215228e-05
3.5972379e-07
2.1745327e-06
5.0363731e-05
2.84845e-07
1.9473689e-06
4.8751767e-05
2.2309996e-07
1.743199e-06
4.7300329e-05
1.7281163e-07
1.5605625e-06
4.5994003e-05
1.3226573e-07
1.3978728e-06
4.481817e-05
9.9840019e-08
1.2534874e-06
4.3759115e-05
7.407558e-08
1.1257599e-06
4.2804119e-05
5.3707595e-08
1.0130801e-06
4.1941499e-05
3.7671177e-08
9.1390257e-07
4.1160624e-05
2.5096393e-08
8.2676627e-07
4.0451889e-05
1.5294084e-08
7.5030296e-07
3.9806789e-05
7.5280724e-09
6.8329095e-07
3.9217542e-05
1.6726449e-09
6.2455134e-07
3.8677512e-05
-3.0332435e-09
5.731302e-07
3.8180739e-05
-6.648782e-09
5.2807297e-07
3.7722004e-05
-9.3596088e-09
4.8853399e-07
3.7296777e-05
-1.1371873e-08
4.5378881e-07
3.6901113e-05
-1.2818312e-08
4.231987e-07
3.6531589e-05
-1.3805349e-08
3.9620443e-07
3.6185238e-05
-1.4417475e-08
3.723184e-07
3.5859493e-05
-1.4721865e-08
3.5111739e-07
3.5552133e-05
-1.4772561e-08
3.3223546e-07
3.5261239e-05
-1.4613835e-08
3.1535699e-07
3.4985145e-05
-1.4282065e-08
3.0021063e-07
3.4722412e-05
-1.3807546e-08
2.8656348e-07
3.4471789e-05
-1.3215614e-08
2.7421604e-07
3.4232188e-05
-1.2527835e-08
2.6299745e-07
3.400266e-05
-1.1762343e-08
2.527615e-07
3.3782377e-05
-1.0934693e-08
2.4338318e-07
3.3570609e-05
-1.0058132e-08
2.347554e-07
3.3366718e-05
-9.1439975e-09
2.2678661e-07
3.3170136e-05
-8.2019571e-09
2.1939825e-07
3.298036e-05
-7.2403296e-09
2.1252301e-07
3.2796944e-05
-6.265963e-09
2.0610287e-07
3.2619487e-05
-5.2845706e-09
2.0008799e-07
3.2447628e-05
-4.3008818e-09
1.9443504e-07
3.2281045e-05
-3.3182101e-09
1.8910619e-07
3.2119443e-05
-2.3376259e-09
1.8406777e-07
3.1962558e-05
-1.3525942e-09
1.7928699e-07
3.1810079e-05
-2.7609307e-10
1.7472824e-07
3.1661882e-05
5.8570302e-10
1.7043972e-07
3.1517735e-05
1.4350517e-09
1.6637367e-07
3.1377431e-05
2.3027822e-09
1.6249033e-07
3.1240793e-05
3.1570767e-09
1.5877558e-07
3.1107656e-05
3.9947775e-09
1.5521784e-07
3.0977866e-05
4.8142216e-09
1.5180604e-07
3.0851282e-05
5.6142464e-09
1.4853007e-07
3.072777e-05
6.394442e-09
1.4538094e-07
3.0607205e-05
7.1553551e-09
1.4235042e-07
3.0489468e-05
7.8992984e-09
1.3943082e-07
3.0374444e-05
8.6280431e-09
1.3661497e-07
3.0262042e-05
9.3117688e-09
1.3390271e-07
3.0152155e-05
9.9834102e-09
1.3128391e-07
3.0044688e-05
1.0638297e-08
1.2875284e-07
2.9939554e-05
1.1272825e-08
1.2630546e-07
2.9836669e-05
1.1887204e-08
1.2393745e-07
2.9735954e-05
1.2481768e-08
1.216448e-07
2.9637333e-05
1.3056723e-08
1.1942378e-07
2.9540733e-05
1.3612375e-08
1.1727091e-07
2.9446088e-05
1.4149009e-08
1.1518301e-07
2.9353331e-05
1.4666871e-08
1.1315702e-07
2.9262401e-05
1.51663e-08
1.1119023e-07
2.9173238e-05
1.5647536e-08
1.0927989e-07
2.9085785e-05
1.6110811e-08
1.0742359e-07
2.8999989e-05
1.6556346e-08
1.0561895e-07
2.8915798e-05
1.6984433e-08
1.0386376e-07
2.8833161e-05
1.7395138e-08
1.0215583e-07
2.8752033e-05
1.7788617e-08
1.0049315e-07
2.8672368e-05
1.8164825e-08
9.887367e-08
2.8594123e-05
1.8523767e-08
9.7295449e-08
2.8517256e-05
1.88651e-08
9.575642e-08
2.844173e-05
1.9188496e-08
9.4254474e-08
2.8367506e-05
1.9493223e-08
9.2787234e-08
2.8294552e-05
1.9778588e-08
9.1352158e-08
2.8222835e-05
2.0043639e-08
8.9945974e-08
2.8152328e-05
2.0287698e-08
8.8564545e-08
2.808301e-05
2.0510962e-08
8.7202315e-08
2.801487e-05
2.0715458e-08
8.5851482e-08
2.7947911e-05
2.0906883e-08
8.4501406e-08
2.788216e-05
2.109677e-08
8.3138487e-08
2.7817681e-05
2.1303122e-08
8.1749503e-08
2.7754568e-05
2.1545601e-08
8.034176e-08
2.769286e-05
2.1824833e-08
7.9037872e-08
2.7632011e-05
2.2065674e-08
7.8504719e-08
2.7569602e-05
2.1988997e-08
8.0618341e-08
2.0691009e-08
1.0778529e-07
0.00010489972
2.7443437e-07
6.5050608e-06
9.8802667e-05
5.0716769e-07
6.6361845e-06
9.3295816e-05
6.5855073e-07
6.1922874e-06
8.8116217e-05
7.290259e-07
5.9257055e-06
8.3248125e-05
7.437882e-07
5.6236949e-06