/*--------------------------------*- C++ -*----------------------------------*\
  =========                 |
  \\      /  F ield         | OpenFOAM: The Open Source CFD Toolbox
   \\    /   O peration     | Website:  https://openfoam.org
    \\  /    A nd           | Version:  7
     \\/     M anipulation  |
\*---------------------------------------------------------------------------*/
FoamFile
{
    version     2.0;
    format      ascii;
    class       volScalarField;
    location    "100/water";
    object      T;
}
// * * * * * * * * * * * * * * * * * * * * * * * * * * * * * * * * * * * * * //

dimensions      [0 0 0 1 0 0 0];

internalField   nonuniform List<scalar> 
54000
(
300.00147
300.00308
300.00488
300.00689
300.00915
300.01167
300.01449
300.01761
300.02099
300.0246
300.02838
300.03224
300.03612
300.03995
300.04368
300.04727
300.0507
300.05394
300.05698
300.05983
300.06249
300.06495
300.06723
300.06934
300.07128
300.07306
300.07469
300.07618
300.07754
300.07876
300.07985
300.08083
300.08169
300.08245
300.08312
300.08369
300.08419
300.08461
300.08496
300.08526
300.08549
300.08567
300.0858
300.08589
300.08594
300.08595
300.08593
300.08589
300.08582
300.08573
300.08563
300.08551
300.08539
300.08526
300.08512
300.08499
300.08485
300.08472
300.08458
300.08445
300.08432
300.08419
300.08407
300.08395
300.08383
300.08372
300.0836
300.0835
300.08339
300.08329
300.08319
300.08309
300.08299
300.0829
300.08281
300.08272
300.08263
300.08254
300.08246
300.08238
300.0823
300.08223
300.08215
300.08208
300.08201
300.08194
300.08188
300.08181
300.08175
300.08169
300.08163
300.08158
300.08152
300.08147
300.08142
300.08137
300.08133
300.08128
300.08124
300.08121
300.00008
300.00026
300.00053
300.00089
300.00135
300.00189
300.00251
300.00319
300.00393
300.0047
300.00551
300.00636
300.00725
300.00818
300.00916
300.01019
300.01127
300.0124
300.01356
300.01475
300.01597
300.0172
300.01843
300.01967
300.0209
300.02212
300.02332
300.0245
300.02565
300.02677
300.02785
300.02889
300.02989
300.03084
300.03174
300.03259
300.03338
300.0341
300.03477
300.03536
300.03589
300.03634
300.03672
300.03703
300.03725
300.0374
300.03747
300.03747
300.0374
300.03726
300.03707
300.03683
300.03654
300.03622
300.03586
300.03549
300.03511
300.03471
300.03431
300.03391
300.03351
300.03312
300.03274
300.03237
300.03201
300.03165
300.03131
300.03098
300.03066
300.03035
300.03005
300.02976
300.02947
300.02919
300.02892
300.02865
300.0284
300.02814
300.02789
300.02765
300.02741
300.02718
300.02695
300.02672
300.02651
300.02629
300.02609
300.02588
300.02568
300.02549
300.0253
300.02512
300.02494
300.02477
300.0246
300.02444
300.02428
300.02413
300.024
300.02392
300
300.00002
300.00005
300.0001
300.00018
300.00028
300.00041
300.00056
300.00073
300.00091
300.0011
300.00129
300.00149
300.0017
300.00192
300.00216
300.0024
300.00267
300.00295
300.00325
300.00357
300.00392
300.00428
300.00466
300.00505
300.00547
300.00589
300.00633
300.00678
300.00724
300.00771
300.00817
300.00865
300.00912
300.00958
300.01005
300.0105
300.01094
300.01137
300.01178
300.01217
300.01253
300.01287
300.01317
300.01344
300.01366
300.01384
300.01396
300.01404
300.01406
300.01402
300.01392
300.01377
300.01355
300.01328
300.01295
300.01258
300.01216
300.0117
300.01121
300.0107
300.01017
300.00964
300.0091
300.00856
300.00803
300.00752
300.00702
300.00654
300.00608
300.00563
300.00521
300.0048
300.00441
300.00404
300.00368
300.00333
300.003
300.00267
300.00235
300.00204
300.00174
300.00144
300.00115
300.00086
300.00058
300.00031
300.00004
299.99978
299.99952
299.99926
299.99901
299.99877
299.99852
299.99829
299.99806
299.99784
299.99762
299.99742
299.99724
300
300
300
300.00001
300.00002
300.00003
300.00006
300.00008
300.00011
300.00015
300.00019
300.00023
300.00028
300.00032
300.00037
300.00042
300.00047
300.00053
300.00059
300.00065
300.00072
300.0008
300.00088
300.00096
300.00106
300.00116
300.00127
300.00138
300.0015
300.00163
300.00176
300.0019
300.00204
300.00219
300.00235
300.00251
300.00267
300.00283
300.003
300.00317
300.00333
300.00349
300.00365
300.00381
300.00395
300.00409
300.00421
300.00432
300.0044
300.00447
300.0045
300.00451
300.00448
300.00441
300.0043
300.00414
300.00394
300.00368
300.00337
300.00302
300.00261
300.00217
300.00168
300.00116
300.00062
300.00006
299.99949
299.99892
299.99835
299.9978
299.99726
299.99675
299.99625
299.99578
299.99533
299.99491
299.99451
299.99413
299.99376
299.99342
299.99308
299.99276
299.99246
299.99216
299.99186
299.99158
299.9913
299.99103
299.99076
299.9905
299.99024
299.98999
299.98974
299.98949
299.98925
299.98901
299.98878
299.98855
299.98833
299.98812
300
300
300
300
300
300
300.00001
300.00001
300.00001
300.00002
300.00003
300.00003
300.00004
300.00005
300.00006
300.00007
300.00008
300.00009
300.0001
300.00011
300.00012
300.00014
300.00015
300.00017
300.00019
300.00021
300.00023
300.00025
300.00028
300.00031
300.00033
300.00037
300.0004
300.00043
300.00047
300.00051
300.00055
300.0006
300.00064
300.00069
300.00074
300.00079
300.00084
300.00089
300.00094
300.00099
300.00104
300.00108
300.00112
300.00116
300.00118
300.00119
300.00119
300.00118
300.00114
300.00107
300.00097
300.00084
300.00066
300.00044
300.00018
299.99986
299.9995
299.99909
299.99864
299.99815
299.99763
299.99709
299.99653
299.99596
299.9954
299.99484
299.99429
299.99377
299.99327
299.99279
299.99234
299.99191
299.99151
299.99113
299.99077
299.99043
299.99011
299.9898
299.98951
299.98923
299.98895
299.98869
299.98843
299.98817
299.98792
299.98768
299.98744
299.98721
299.98697
299.98675
299.98652
299.9863
299.98608
299.98587
300
300
300
300
300
300
300
300
300
300
300
300
300.00001
300.00001
300.00001
300.00001
300.00001
300.00001
300.00001
300.00002
300.00002
300.00002
300.00002
300.00003
300.00003
300.00003
300.00004
300.00004
300.00004
300.00005
300.00005
300.00006
300.00007
300.00007
300.00008
300.00009
300.0001
300.0001
300.00011
300.00012
300.00014
300.00015
300.00016
300.00017
300.00018
300.0002
300.00021
300.00022
300.00023
300.00024
300.00025
300.00025
300.00025
300.00023
300.00021
300.00017
300.00011
300.00003
299.99992
299.99977
299.99959
299.99936
299.99909
299.99877
299.9984
299.99799
299.99754
299.99705
299.99654
299.996
299.99545
299.9949
299.99434
299.9938
299.99327
299.99276
299.99228
299.99182
299.99138
299.99098
299.99059
299.99023
299.98989
299.98957
299.98927
299.98898
299.9887
299.98843
299.98818
299.98792
299.98768
299.98744
299.98721
299.98698
299.98675
299.98653
299.98631
299.9861
299.98588
299.98568
300
300
300
300
300
300
300
300
300
300
300
300
300
300
300
300
300
300
300
300
300
300
300
300
300
300
300
300.00001
300.00001
300.00001
300.00001
300.00001
300.00001
300.00001
300.00001
300.00001
300.00001
300.00002
300.00002
300.00002
300.00002
300.00002
300.00003
300.00003
300.00003
300.00003
300.00004
300.00004
300.00004
300.00004
300.00004
300.00004
300.00003
300.00001
299.99999
299.99996
299.99992
299.99985
299.99976
299.99965
299.9995
299.99931
299.99909
299.99882
299.9985
299.99814
299.99774
299.9973
299.99682
299.99632
299.99579
299.99525
299.99471
299.99417
299.99364
299.99312
299.99262
299.99215
299.9917
299.99127
299.99087
299.9905
299.99015
299.98981
299.9895
299.98921
299.98892
299.98865
299.98839
299.98814
299.9879
299.98766
299.98743
299.9872
299.98698
299.98676
299.98654
299.98633
299.98612
299.98591
300
300
300
300
300
300
300
300
300
300
300
300
300
300
300
300
300
300
300
300
300
300
300
300
300
300
300
300
300
300
300
300
300
300
300
300
300
300
300
300
300
300
300
300
300
300
300.00001
300
300
300
300
300
299.99999
299.99997
299.99995
299.99993
299.99988
299.99983
299.99975
299.99964
299.99951
299.99934
299.99914
299.99889
299.9986
299.99826
299.99788
299.99747
299.99701
299.99653
299.99602
299.9955
299.99496
299.99443
299.9939
299.99339
299.99289
299.99241
299.99196
299.99153
299.99112
299.99074
299.99038
299.99004
299.98973
299.98943
299.98914
299.98887
299.98861
299.98836
299.98811
299.98787
299.98764
299.98742
299.98719
299.98698
299.98676
299.98655
299.98634
299.98614
300
300
300
300
300
300
300
300
300
300
300
300
300
300
300
300
300
300
300
300
300
300
300
300
300
300
300
300
300
300
300
300
300
300
300
300
300
300
300
300
300
300
300
300
300
300
300
300
300
300
299.99999
299.99999
299.99998
299.99997
299.99995
299.99992
299.99988
299.99982
299.99975
299.99965
299.99952
299.99936
299.99916
299.99892
299.99864
299.99831
299.99795
299.99754
299.9971
299.99662
299.99612
299.99561
299.99508
299.99455
299.99403
299.99351
299.99302
299.99254
299.99208
299.99165
299.99124
299.99086
299.9905
299.99016
299.98984
299.98954
299.98926
299.98898
299.98872
299.98847
299.98823
299.98799
299.98776
299.98753
299.98731
299.98709
299.98688
299.98667
299.98646
299.98625
300
300
300
300
300
300
300
300
300
300
300
300
300
300
300
300
300
300
300
300
300
300
300
300
300
300
300
300
300
300
300
300
300
300
300
300
300
300
300
300
300
300
300
300
300
300
300
300
300
300
299.99999
299.99999
299.99998
299.99997
299.99995
299.99992
299.99988
299.99982
299.99975
299.99965
299.99952
299.99936
299.99916
299.99892
299.99864
299.99831
299.99795
299.99754
299.9971
299.99662
299.99612
299.99561
299.99508
299.99455
299.99403
299.99351
299.99302
299.99254
299.99208
299.99165
299.99124
299.99086
299.9905
299.99016
299.98984
299.98954
299.98926
299.98898
299.98872
299.98847
299.98823
299.98799
299.98776
299.98753
299.98731
299.98709
299.98688
299.98667
299.98646
299.98626
300
300
300
300
300
300
300
300
300
300
300
300
300
300
300
300
300
300
300
300
300
300
300
300
300
300
300
300
300
300
300
300
300
300
300
300
300
300
300
300
300
300
300
300
300
300
300
300
300
300
300
299.99999
299.99999
299.99997
299.99995
299.99992
299.99988
299.99982
299.99975
299.99964
299.99951
299.99934
299.99913
299.99889
299.9986
299.99826
299.99788
299.99747
299.99701
299.99653
299.99602
299.9955
299.99496
299.99443
299.9939
299.99339
299.99289
299.99241
299.99196
299.99153
299.99112
299.99074
299.99038
299.99005
299.98973
299.98943
299.98914
299.98887
299.98861
299.98836
299.98811
299.98788
299.98764
299.98742
299.9872
299.98698
299.98676
299.98655
299.98634
299.98614
300
300
300
300
300
300
300
300
300
300
300
300
300
300
300
300
300
300
300
300
300
300
300
300
300
300
300
300
300.00001
300.00001
300.00001
300.00001
300.00001
300.00001
300.00001
300.00001
300.00001
300.00001
300.00002
300.00002
300.00002
300.00002
300.00002
300.00003
300.00003
300.00003
300.00003
300.00004
300.00004
300.00004
300.00004
300.00003
300.00003
300.00001
299.99999
299.99996
299.99991
299.99985
299.99976
299.99965
299.9995
299.99931
299.99909
299.99882
299.9985
299.99814
299.99774
299.9973
299.99682
299.99632
299.99579
299.99525
299.99471
299.99417
299.99364
299.99312
299.99262
299.99215
299.9917
299.99127
299.99088
299.9905
299.99015
299.98982
299.9895
299.98921
299.98893
299.98865
299.98839
299.98814
299.9879
299.98766
299.98743
299.9872
299.98698
299.98676
299.98654
299.98633
299.98612
299.98592
300
300
300
300
300
300
300
300
300
300
300
300
300
300.00001
300.00001
300.00001
300.00001
300.00001
300.00001
300.00002
300.00002
300.00002
300.00002
300.00002
300.00003
300.00003
300.00003
300.00004
300.00004
300.00005
300.00005
300.00006
300.00006
300.00007
300.00008
300.00009
300.00009
300.0001
300.00011
300.00012
300.00013
300.00015
300.00016
300.00017
300.00018
300.00019
300.00021
300.00022
300.00023
300.00024
300.00025
300.00025
300.00025
300.00023
300.00021
300.00017
300.00011
300.00003
299.99992
299.99977
299.99959
299.99936
299.99909
299.99877
299.9984
299.99799
299.99754
299.99706
299.99654
299.996
299.99545
299.9949
299.99434
299.9938
299.99327
299.99277
299.99228
299.99182
299.99139
299.99098
299.9906
299.99024
299.9899
299.98958
299.98927
299.98898
299.98871
299.98844
299.98818
299.98793
299.98769
299.98745
299.98721
299.98698
299.98676
299.98654
299.98632
299.9861
299.98589
299.98568
300
300
300
300
300
300
300.00001
300.00001
300.00001
300.00002
300.00003
300.00003
300.00004
300.00005
300.00006
300.00007
300.00008
300.00009
300.0001
300.00011
300.00012
300.00014
300.00015
300.00017
300.00019
300.00021
300.00023
300.00025
300.00028
300.0003
300.00033
300.00037
300.0004
300.00043
300.00047
300.00051
300.00055
300.0006
300.00064
300.00069
300.00074
300.00079
300.00084
300.00089
300.00094
300.00099
300.00104
300.00108
300.00112
300.00115
300.00118
300.00119
300.00119
300.00118
300.00114
300.00107
300.00097
300.00084
300.00066
300.00044
300.00018
299.99986
299.9995
299.99909
299.99864
299.99815
299.99763
299.99709
299.99653
299.99596
299.9954
299.99484
299.9943
299.99377
299.99327
299.99279
299.99234
299.99191
299.99151
299.99113
299.99078
299.99044
299.99012
299.98981
299.98952
299.98923
299.98896
299.98869
299.98843
299.98818
299.98793
299.98769
299.98745
299.98721
299.98698
299.98676
299.98653
299.98631
299.98609
299.98588
300
300
300
300.00001
300.00002
300.00003
300.00005
300.00008
300.00011
300.00015
300.00019
300.00023
300.00027
300.00032
300.00037
300.00042
300.00047
300.00053
300.00059
300.00065
300.00072
300.0008
300.00088
300.00096
300.00106
300.00116
300.00127
300.00138
300.0015
300.00163
300.00176
300.0019
300.00204
300.00219
300.00235
300.00251
300.00267
300.00283
300.003
300.00317
300.00333
300.00349
300.00365
300.00381
300.00395
300.00409
300.00421
300.00432
300.0044
300.00447
300.0045
300.00451
300.00448
300.00441
300.0043
300.00415
300.00394
300.00368
300.00338
300.00302
300.00262
300.00217
300.00168
300.00116
300.00062
300.00006
299.99949
299.99892
299.99836
299.99781
299.99727
299.99675
299.99626
299.99579
299.99534
299.99492
299.99452
299.99414
299.99377
299.99343
299.9931
299.99278
299.99247
299.99217
299.99188
299.99159
299.99131
299.99104
299.99077
299.99051
299.99025
299.99
299.98975
299.98951
299.98926
299.98903
299.98879
299.98857
299.98834
299.98813
300
300.00002
300.00005
300.0001
300.00018
300.00028
300.00041
300.00056
300.00073
300.00091
300.0011
300.00129
300.00149
300.0017
300.00192
300.00216
300.00241
300.00267
300.00295
300.00325
300.00358
300.00392
300.00428
300.00466
300.00506
300.00547
300.0059
300.00633
300.00678
300.00724
300.00771
300.00818
300.00865
300.00912
300.00959
300.01005
300.0105
300.01094
300.01137
300.01178
300.01217
300.01254
300.01287
300.01317
300.01344
300.01366
300.01384
300.01397
300.01404
300.01406
300.01402
300.01393
300.01377
300.01355
300.01328
300.01296
300.01258
300.01216
300.01171
300.01122
300.01071
300.01018
300.00965
300.00911
300.00857
300.00805
300.00753
300.00703
300.00655
300.00609
300.00565
300.00522
300.00482
300.00443
300.00405
300.00369
300.00335
300.00301
300.00268
300.00237
300.00206
300.00175
300.00146
300.00117
300.00088
300.0006
300.00033
300.00006
299.99979
299.99953
299.99928
299.99903
299.99878
299.99854
299.99831
299.99808
299.99785
299.99764
299.99743
299.99726
300.00008
300.00026
300.00053
300.00089
300.00135
300.00189
300.00251
300.0032
300.00393
300.0047
300.00552
300.00637
300.00725
300.00819
300.00917
300.0102
300.01128
300.0124
300.01356
300.01475
300.01597
300.0172
300.01844
300.01967
300.02091
300.02212
300.02332
300.0245
300.02565
300.02677
300.02785
300.0289
300.0299
300.03085
300.03175
300.03259
300.03338
300.03411
300.03477
300.03537
300.03589
300.03635
300.03673
300.03703
300.03726
300.0374
300.03748
300.03748
300.0374
300.03727
300.03708
300.03683
300.03655
300.03622
300.03587
300.0355
300.03511
300.03472
300.03432
300.03392
300.03352
300.03313
300.03275
300.03238
300.03202
300.03167
300.03133
300.031
300.03068
300.03037
300.03006
300.02977
300.02949
300.02921
300.02894
300.02867
300.02841
300.02816
300.02791
300.02766
300.02743
300.02719
300.02696
300.02674
300.02652
300.02631
300.0261
300.0259
300.0257
300.02551
300.02532
300.02514
300.02496
300.02479
300.02462
300.02446
300.0243
300.02415
300.02402
300.02394
300.00147
300.00308
300.00488
300.00689
300.00915
300.01168
300.0145
300.01761
300.021
300.02461
300.02838
300.03224
300.03612
300.03995
300.04368
300.04728
300.0507
300.05394
300.05699
300.05983
300.06249
300.06495
300.06723
300.06934
300.07128
300.07306
300.0747
300.07619
300.07754
300.07876
300.07986
300.08083
300.0817
300.08246
300.08312
300.0837
300.08419
300.08461
300.08497
300.08526
300.08549
300.08568
300.08581
300.0859
300.08595
300.08596
300.08594
300.08589
300.08582
300.08574
300.08563
300.08552
300.08539
300.08526
300.08513
300.08499
300.08486
300.08472
300.08459
300.08445
300.08433
300.0842
300.08408
300.08395
300.08384
300.08372
300.08361
300.0835
300.0834
300.08329
300.08319
300.08309
300.083
300.08291
300.08281
300.08272
300.08264
300.08255
300.08247
300.08239
300.08231
300.08224
300.08216
300.08209
300.08202
300.08195
300.08189
300.08182
300.08176
300.0817
300.08164
300.08159
300.08153
300.08148
300.08143
300.08138
300.08134
300.08129
300.08125
300.08122
300.00147
300.00298
300.00457
300.00625
300.00805
300.00997
300.01204
300.01425
300.0166
300.01908
300.02167
300.02437
300.02714
300.02997
300.03284
300.03572
300.0386
300.04144
300.04423
300.04697
300.04962
300.0522
300.05467
300.05705
300.05932
300.06148
300.06354
300.06548
300.06732
300.06905
300.07067
300.07219
300.07361
300.07493
300.07615
300.07728
300.07832
300.07928
300.08016
300.08095
300.08168
300.08234
300.08292
300.08345
300.08392
300.08433
300.0847
300.08501
300.08528
300.0855
300.08569
300.08585
300.08597
300.08607
300.08614
300.08619
300.08622
300.08623
300.08622
300.0862
300.08617
300.08613
300.08608
300.08603
300.08596
300.08589
300.08581
300.08573
300.08565
300.08556
300.08547
300.08537
300.08528
300.08518
300.08508
300.08498
300.08487
300.08477
300.08466
300.08456
300.08445
300.08435
300.08424
300.08414
300.08403
300.08393
300.08382
300.08372
300.08362
300.08352
300.08342
300.08332
300.08323
300.08313
300.08304
300.08295
300.08286
300.08277
300.08268
300.0826
300.00009
300.00026
300.0005
300.00081
300.0012
300.00164
300.00214
300.0027
300.00329
300.00393
300.0046
300.0053
300.00603
300.00679
300.00757
300.00837
300.00919
300.01002
300.01087
300.01174
300.01261
300.01349
300.01438
300.01528
300.01617
300.01706
300.01796
300.01885
300.01973
300.02061
300.02149
300.02235
300.02321
300.02405
300.02488
300.0257
300.02651
300.02729
300.02806
300.02881
300.02954
300.03024
300.03092
300.03157
300.03219
300.03279
300.03335
300.03388
300.03438
300.03484
300.03526
300.03565
300.036
300.03632
300.0366
300.03685
300.03706
300.03723
300.03738
300.03749
300.03758
300.03764
300.03767
300.03767
300.03765
300.03761
300.03755
300.03747
300.03737
300.03725
300.03712
300.03697
300.03681
300.03664
300.03645
300.03625
300.03604
300.03583
300.0356
300.03536
300.03512
300.03487
300.03462
300.03436
300.0341
300.03383
300.03356
300.03328
300.03301
300.03273
300.03245
300.03217
300.03189
300.03161
300.03134
300.03106
300.03079
300.03051
300.03025
300.03002
300
300.00002
300.00005
300.00009
300.00016
300.00025
300.00035
300.00048
300.00063
300.00079
300.00096
300.00115
300.00134
300.00155
300.00176
300.00198
300.00221
300.00245
300.00269
300.00294
300.0032
300.00346
300.00373
300.004
300.00428
300.00456
300.00485
300.00515
300.00545
300.00575
300.00606
300.00637
300.00668
300.007
300.00732
300.00764
300.00797
300.00829
300.00862
300.00895
300.00928
300.0096
300.00992
300.01025
300.01056
300.01087
300.01118
300.01147
300.01176
300.01204
300.0123
300.01256
300.01279
300.01302
300.01322
300.01341
300.01358
300.01372
300.01385
300.01396
300.01405
300.01411
300.01415
300.01418
300.01418
300.01417
300.01413
300.01408
300.01401
300.01393
300.01383
300.01371
300.01358
300.01344
300.01329
300.01312
300.01295
300.01276
300.01256
300.01236
300.01214
300.01192
300.01169
300.01145
300.0112
300.01095
300.01069
300.01042
300.01015
300.00988
300.0096
300.00931
300.00902
300.00873
300.00843
300.00813
300.00783
300.00753
300.00723
300.00694
300
300
300
300.00001
300.00002
300.00003
300.00005
300.00007
300.0001
300.00013
300.00017
300.00021
300.00026
300.0003
300.00036
300.00041
300.00047
300.00053
300.00059
300.00066
300.00073
300.0008
300.00087
300.00094
300.00102
300.0011
300.00118
300.00126
300.00134
300.00143
300.00152
300.00161
300.00171
300.0018
300.0019
300.002
300.00211
300.00221
300.00232
300.00243
300.00254
300.00265
300.00277
300.00288
300.003
300.00311
300.00323
300.00335
300.00346
300.00358
300.00369
300.0038
300.00391
300.00401
300.00411
300.0042
300.00428
300.00436
300.00442
300.00448
300.00452
300.00455
300.00457
300.00457
300.00456
300.00454
300.0045
300.00445
300.00439
300.00431
300.00423
300.00413
300.00401
300.00389
300.00376
300.00362
300.00347
300.00332
300.00315
300.00298
300.00281
300.00262
300.00243
300.00224
300.00204
300.00184
300.00163
300.00141
300.0012
300.00097
300.00075
300.00052
300.00029
300.00005
299.99981
299.99957
299.99932
299.99907
299.99882
299.99857
300
300
300
300
300
300
300
300.00001
300.00001
300.00002
300.00002
300.00003
300.00004
300.00005
300.00006
300.00007
300.00008
300.00009
300.00011
300.00012
300.00014
300.00015
300.00017
300.00018
300.0002
300.00022
300.00024
300.00026
300.00028
300.0003
300.00032
300.00034
300.00037
300.00039
300.00042
300.00044
300.00047
300.0005
300.00053
300.00055
300.00058
300.00062
300.00065
300.00068
300.00071
300.00075
300.00078
300.00082
300.00085
300.00089
300.00093
300.00096
300.001
300.00103
300.00107
300.0011
300.00113
300.00115
300.00118
300.00119
300.0012
300.00121
300.0012
300.00119
300.00117
300.00114
300.0011
300.00105
300.00099
300.00092
300.00083
300.00074
300.00064
300.00053
300.00041
300.00028
300.00014
300
299.99985
299.9997
299.99954
299.99938
299.99921
299.99904
299.99886
299.99869
299.99851
299.99832
299.99813
299.99794
299.99775
299.99756
299.99736
299.99716
299.99696
299.99676
299.99656
299.99635
299.99614
299.99593
300
300
300
300
300
300
300
300
300
300
300
300
300
300.00001
300.00001
300.00001
300.00001
300.00001
300.00002
300.00002
300.00002
300.00002
300.00003
300.00003
300.00003
300.00004
300.00004
300.00004
300.00005
300.00005
300.00006
300.00006
300.00006
300.00007
300.00007
300.00008
300.00009
300.00009
300.0001
300.0001
300.00011
300.00012
300.00012
300.00013
300.00014
300.00015
300.00016
300.00016
300.00017
300.00018
300.00019
300.0002
300.00021
300.00022
300.00023
300.00023
300.00024
300.00024
300.00025
300.00025
300.00024
300.00024
300.00022
300.00021
300.00018
300.00015
300.00011
300.00006
300
299.99994
299.99986
299.99978
299.99968
299.99958
299.99947
299.99935
299.99923
299.9991
299.99896
299.99882
299.99867
299.99852
299.99836
299.9982
299.99804
299.99788
299.99771
299.99754
299.99737
299.99719
299.99702
299.99684
299.99666
299.99648
299.9963
299.99611
299.99593
299.99575
299.99556
299.99537
300
300
300
300
300
300
300
300
300
300
300
300
300
300
300
300
300
300
300
300
300
300
300
300
300
300
300.00001
300.00001
300.00001
300.00001
300.00001
300.00001
300.00001
300.00001
300.00001
300.00001
300.00001
300.00001
300.00001
300.00002
300.00002
300.00002
300.00002
300.00002
300.00002
300.00002
300.00003
300.00003
300.00003
300.00003
300.00003
300.00003
300.00003
300.00004
300.00004
300.00004
300.00004
300.00004
300.00003
300.00003
300.00002
300.00001
300
299.99998
299.99995
299.99992
299.99989
299.99984
299.99979
299.99973
299.99966
299.99959
299.9995
299.99941
299.99931
299.9992
299.99908
299.99896
299.99883
299.9987
299.99856
299.99842
299.99827
299.99812
299.99797
299.99781
299.99766
299.9975
299.99733
299.99717
299.997
299.99683
299.99667
299.9965
299.99632
299.99615
299.99598
299.9958
299.99563
299.99545
300
300
300
300
300
300
300
300
300
300
300
300
300
300
300
300
300
300
300
300
300
300
300
300
300
300
300
300
300
300
300
300
300
300
300
300
300
300
300
300
300
300
300
300
300
300
300
300
300
300
300
300
300
300
300
300
300
300
299.99999
299.99999
299.99998
299.99997
299.99996
299.99994
299.99992
299.99989
299.99985
299.99981
299.99977
299.99971
299.99965
299.99958
299.9995
299.99941
299.99932
299.99922
299.99911
299.99899
299.99887
299.99875
299.99862
299.99848
299.99834
299.9982
299.99805
299.9979
299.99775
299.9976
299.99744
299.99728
299.99713
299.99696
299.9968
299.99664
299.99647
299.99631
299.99614
299.99597
299.9958
299.99563
300
300
300
300
300
300
300
300
300
300
300
300
300
300
300
300
300
300
300
300
300
300
300
300
300
300
300
300
300
300
300
300
300
300
300
300
300
300
300
300
300
300
300
300
300
300
300
300
300
300
300
300
300
300
300
300
300
299.99999
299.99999
299.99998
299.99998
299.99997
299.99995
299.99993
299.99991
299.99989
299.99985
299.99982
299.99977
299.99972
299.99966
299.99959
299.99951
299.99943
299.99934
299.99924
299.99914
299.99903
299.99891
299.99879
299.99866
299.99853
299.99839
299.99825
299.99811
299.99797
299.99782
299.99767
299.99752
299.99736
299.99721
299.99705
299.99689
299.99673
299.99657
299.99641
299.99624
299.99608
299.99591
299.99575
300
300
300
300
300
300
300
300
300
300
300
300
300
300
300
300
300
300
300
300
300
300
300
300
300
300
300
300
300
300
300
300
300
300
300
300
300
300
300
300
300
300
300
300
300
300
300
300
300
300
300
300
300
300
300
300
299.99999
299.99999
299.99999
299.99998
299.99997
299.99996
299.99995
299.99993
299.99991
299.99989
299.99985
299.99981
299.99977
299.99972
299.99966
299.99959
299.99951
299.99943
299.99934
299.99924
299.99914
299.99903
299.99891
299.99879
299.99866
299.99853
299.99839
299.99825
299.99811
299.99797
299.99782
299.99767
299.99752
299.99736
299.99721
299.99705
299.99689
299.99673
299.99657
299.99641
299.99624
299.99608
299.99591
299.99575
300
300
300
300
300
300
300
300
300
300
300
300
300
300
300
300
300
300
300
300
300
300
300
300
300
300
300
300
300
300
300
300
300
300
300
300
300
300
300
300
300
300
300
300
300
300
300
300
300
300
300
300
300
300
300
300
300
300
299.99999
299.99999
299.99998
299.99997
299.99995
299.99994
299.99991
299.99989
299.99985
299.99981
299.99976
299.99971
299.99965
299.99958
299.9995
299.99941
299.99932
299.99922
299.99911
299.99899
299.99887
299.99875
299.99862
299.99848
299.99834
299.9982
299.99805
299.9979
299.99775
299.9976
299.99744
299.99728
299.99712
299.99696
299.9968
299.99664
299.99647
299.99631
299.99614
299.99597
299.9958
299.99563
300
300
300
300
300
300
300
300
300
300
300
300
300
300
300
300
300
300
300
300
300
300
300
300
300
300
300
300
300.00001
300.00001
300.00001
300.00001
300.00001
300.00001
300.00001
300.00001
300.00001
300.00001
300.00001
300.00001
300.00002
300.00002
300.00002
300.00002
300.00002
300.00002
300.00002
300.00003
300.00003
300.00003
300.00003
300.00003
300.00003
300.00003
300.00004
300.00004
300.00004
300.00003
300.00003
300.00003
300.00002
300.00001
299.99999
299.99998
299.99995
299.99992
299.99988
299.99984
299.99979
299.99973
299.99966
299.99959
299.9995
299.99941
299.99931
299.9992
299.99908
299.99896
299.99883
299.9987
299.99856
299.99842
299.99827
299.99812
299.99797
299.99781
299.99766
299.99749
299.99733
299.99717
299.997
299.99683
299.99667
299.9965
299.99632
299.99615
299.99598
299.9958
299.99563
299.99545
300
300
300
300
300
300
300
300
300
300
300
300
300
300.00001
300.00001
300.00001
300.00001
300.00001
300.00001
300.00002
300.00002
300.00002
300.00002
300.00003
300.00003
300.00003
300.00004
300.00004
300.00005
300.00005
300.00005
300.00006
300.00006
300.00007
300.00007
300.00008
300.00008
300.00009
300.0001
300.0001
300.00011
300.00012
300.00012
300.00013
300.00014
300.00015
300.00015
300.00016
300.00017
300.00018
300.00019
300.0002
300.00021
300.00022
300.00022
300.00023
300.00024
300.00024
300.00025
300.00025
300.00024
300.00023
300.00022
300.0002
300.00018
300.00015
300.00011
300.00006
300
299.99994
299.99986
299.99978
299.99968
299.99958
299.99947
299.99935
299.99923
299.9991
299.99896
299.99882
299.99867
299.99852
299.99836
299.9982
299.99804
299.99788
299.99771
299.99754
299.99737
299.99719
299.99702
299.99684
299.99666
299.99648
299.9963
299.99612
299.99593
299.99575
299.99556
299.99537
300
300
300
300
300
300
300
300.00001
300.00001
300.00002
300.00002
300.00003
300.00004
300.00005
300.00006
300.00007
300.00008
300.00009
300.00011
300.00012
300.00014
300.00015
300.00017
300.00018
300.0002
300.00022
300.00024
300.00026
300.00028
300.0003
300.00032
300.00034
300.00037
300.00039
300.00042
300.00044
300.00047
300.0005
300.00052
300.00055
300.00058
300.00061
300.00065
300.00068
300.00071
300.00075
300.00078
300.00082
300.00085
300.00089
300.00093
300.00096
300.001
300.00103
300.00107
300.0011
300.00113
300.00115
300.00118
300.00119
300.0012
300.00121
300.0012
300.00119
300.00117
300.00114
300.0011
300.00105
300.00099
300.00092
300.00083
300.00074
300.00064
300.00053
300.00041
300.00028
300.00014
300
299.99985
299.9997
299.99954
299.99938
299.99921
299.99904
299.99887
299.99869
299.99851
299.99832
299.99814
299.99795
299.99776
299.99756
299.99737
299.99717
299.99697
299.99676
299.99656
299.99635
299.99615
299.99593
300
300
300
300.00001
300.00002
300.00003
300.00005
300.00007
300.0001
300.00013
300.00017
300.00021
300.00026
300.0003
300.00036
300.00041
300.00047
300.00053
300.00059
300.00066
300.00073
300.0008
300.00087
300.00094
300.00102
300.0011
300.00118
300.00126
300.00134
300.00143
300.00152
300.00161
300.00171
300.0018
300.0019
300.002
300.00211
300.00221
300.00232
300.00243
300.00254
300.00265
300.00277
300.00288
300.003
300.00312
300.00323
300.00335
300.00347
300.00358
300.00369
300.0038
300.00391
300.00401
300.00411
300.0042
300.00428
300.00436
300.00442
300.00448
300.00452
300.00455
300.00457
300.00457
300.00457
300.00454
300.00451
300.00446
300.00439
300.00432
300.00423
300.00413
300.00402
300.0039
300.00376
300.00362
300.00348
300.00332
300.00316
300.00299
300.00281
300.00263
300.00244
300.00225
300.00205
300.00184
300.00163
300.00142
300.0012
300.00098
300.00076
300.00053
300.00029
300.00006
299.99982
299.99957
299.99933
299.99908
299.99883
299.99857
300
300.00002
300.00005
300.00009
300.00016
300.00025
300.00035
300.00048
300.00063
300.00079
300.00096
300.00115
300.00134
300.00155
300.00176
300.00199
300.00221
300.00245
300.00269
300.00294
300.0032
300.00346
300.00373
300.004
300.00428
300.00457
300.00486
300.00515
300.00545
300.00575
300.00606
300.00637
300.00669
300.007
300.00732
300.00765
300.00797
300.0083
300.00863
300.00895