/*--------------------------------*- C++ -*----------------------------------*\
  =========                 |
  \\      /  F ield         | OpenFOAM: The Open Source CFD Toolbox
   \\    /   O peration     | Website:  https://openfoam.org
    \\  /    A nd           | Version:  7
     \\/     M anipulation  |
\*---------------------------------------------------------------------------*/
FoamFile
{
    version     2.0;
    format      ascii;
    class       surfaceScalarField;
    location    "2100/water";
    object      phi;
}
// * * * * * * * * * * * * * * * * * * * * * * * * * * * * * * * * * * * * * //

dimensions      [1 0 -1 0 0 0 0];

internalField   nonuniform List<scalar> 
156660
(
9.9057239e-05
6.0010402e-06
6.0528092e-06
8.6847498e-05
6.0555113e-06
6.1542307e-06
7.5687891e-05
5.5111362e-06
5.6484701e-06
6.5441704e-05
5.0404181e-06
5.2057689e-06
5.6267661e-05
4.4956436e-06
4.6783991e-06
4.8318019e-05
3.8797648e-06
4.0698777e-06
4.1624776e-05
3.2524448e-06
3.4407982e-06
3.6124897e-05
2.660462e-06
2.839417e-06
3.1692235e-05
2.1345127e-06
2.2981489e-06
2.8162841e-05
1.6926975e-06
1.8366964e-06
2.5361437e-05
1.3399933e-06
1.4614113e-06
2.3124664e-05
1.0698477e-06
1.1669256e-06
2.1315127e-05
8.687542e-07
9.4078227e-07
1.9825714e-05
7.2110064e-07
7.6831271e-07
1.8577278e-05
6.1248247e-07
6.3595304e-07
1.7513255e-05
5.3125218e-07
5.3277147e-07
1.6593744e-05
4.6879724e-07
4.5071349e-07
1.5790433e-05
4.1913715e-07
3.8417384e-07
1.5082784e-05
3.7829072e-07
3.2935847e-07
1.4455417e-05
3.436713e-07
2.8369564e-07
1.3896409e-05
3.1361409e-07
2.4539333e-07
1.339622e-05
2.870445e-07
2.1314452e-07
1.2947015e-05
2.6326032e-07
1.8594511e-07
1.2542237e-05
2.4179366e-07
1.6298459e-07
1.2176318e-05
2.2232212e-07
1.4359689e-07
1.1844484e-05
2.0461479e-07
1.272188e-07
1.1542609e-05
1.8849498e-07
1.1337976e-07
1.1267116e-05
1.7381575e-07
1.0167792e-07
1.1014892e-05
1.6046269e-07
9.1760816e-08
1.0783252e-05
1.4833966e-07
8.3300594e-08
1.0569851e-05
1.3734904e-07
7.605214e-08
1.0372614e-05
1.2738864e-07
6.9848329e-08
1.0189731e-05
1.1836807e-07
6.4514855e-08
1.001963e-05
1.1020447e-07
5.989664e-08
9.8609388e-06
1.0281919e-07
5.5871638e-08
9.7124595e-06
9.6137975e-08
5.2341363e-08
9.5731439e-06
9.0091167e-08
4.922434e-08
9.4420759e-06
8.4614472e-08
4.6453565e-08
9.3184531e-06
7.9648659e-08
4.3974093e-08
9.2015723e-06
7.5139679e-08
4.1741063e-08
9.0908166e-06
7.1038173e-08
3.9717552e-08
8.9856432e-06
6.7301134e-08
3.7872285e-08
8.8855708e-06
6.389426e-08
3.6178141e-08
8.7901757e-06
6.0780079e-08
3.4614949e-08
8.6990829e-06
5.7926181e-08
3.3166678e-08
8.611959e-06
5.5303714e-08
3.1820116e-08
8.5285072e-06
5.2887445e-08
3.0564425e-08
8.4484619e-06
5.0655068e-08
2.9390293e-08
8.3715848e-06
4.858704e-08
2.8290026e-08
8.2976614e-06
4.6666172e-08
2.7257214e-08
8.2264975e-06
4.4877463e-08
2.6286427e-08
8.1579202e-06
4.3208778e-08
2.5368539e-08
8.0917731e-06
4.1649026e-08
2.4498028e-08
8.0279108e-06
4.0186963e-08
2.367535e-08
7.9662006e-06
3.8812669e-08
2.2897543e-08
7.9065219e-06
3.7518405e-08
2.2160239e-08
7.8487639e-06
3.6297852e-08
2.146016e-08
7.7928242e-06
3.5145186e-08
2.0794597e-08
7.7386084e-06
3.4054666e-08
2.0161139e-08
7.6860293e-06
3.3021322e-08
1.9557679e-08
7.6350063e-06
3.2040772e-08
1.898226e-08
7.5854641e-06
3.110907e-08
1.8433068e-08
7.537333e-06
3.0222623e-08
1.7908452e-08
7.4905478e-06
2.9378236e-08
1.7406998e-08
7.4450476e-06
2.8573018e-08
1.6927187e-08
7.4007756e-06
2.7804241e-08
1.6467781e-08
7.3576783e-06
2.7069565e-08
1.6027622e-08
7.3157056e-06
2.6367044e-08
1.5605639e-08
7.2748103e-06
2.5694645e-08
1.5200687e-08
7.2349479e-06
2.505057e-08
1.4811832e-08
7.1960766e-06
2.4433092e-08
1.44382e-08
7.158157e-06
2.3840686e-08
1.4078933e-08
7.1211518e-06
2.3271934e-08
1.3733287e-08
7.0850258e-06
2.2725527e-08
1.3400536e-08
7.0497457e-06
2.2200221e-08
1.3079947e-08
7.0152798e-06
2.1694912e-08
1.2770899e-08
6.9815985e-06
2.1208589e-08
1.2472751e-08
6.9486733e-06
2.0740278e-08
1.2184953e-08
6.9164775e-06
2.0288983e-08
1.1906806e-08
6.8849857e-06
1.9853943e-08
1.163786e-08
6.8541739e-06
1.9434353e-08
1.1377443e-08
6.8240193e-06
1.9029461e-08
1.112512e-08
6.7945006e-06
1.8638485e-08
1.0880238e-08
6.7655975e-06
1.8260746e-08
1.0642314e-08
6.7372912e-06
1.7895555e-08
1.041076e-08
6.7095641e-06
1.75421e-08
1.01851e-08
6.6823996e-06
1.719964e-08
9.9648772e-09
6.6557825e-06
1.6867302e-08
9.7498139e-09
6.6296983e-06
1.6544145e-08
9.5399814e-09
6.6041331e-06
1.6229263e-08
9.3360131e-09
6.5790714e-06
1.5921959e-08
9.1396514e-09
6.554494e-06
1.5622304e-08
8.9551212e-09
6.5303708e-06
1.5332545e-08
8.7906829e-09
6.5066467e-06
1.5060479e-08
8.6635915e-09
6.4832094e-06
1.4827806e-08
8.6095042e-09
6.4598103e-06
1.469307e-08
8.7060133e-09
6.4358388e-06
1.4826412e-08
9.1451468e-09
6.4096303e-06
1.5741767e-08
1.0466758e-08
6.3782855e-06
1.8026576e-08
1.3318242e-08
3.2300231e-08
2.7923534e-08
0.00010646494
4.1872385e-06
6.4599816e-06
0.0001002019
5.695418e-06
6.6231353e-06
9.3659588e-05
5.7790388e-06
6.2744098e-06
8.7011589e-05
5.6514782e-06
6.0369386e-06
8.0422927e-05
5.366912e-06
5.7173941e-06
7.4094022e-05
4.9022832e-06
5.3063862e-06
6.8167026e-05
4.3278136e-06
4.8516272e-06
6.2722565e-05
3.717891e-06
4.387032e-06
5.7799049e-05
3.1243144e-06
3.9337145e-06
5.3403345e-05
2.5820689e-06
3.5063329e-06
4.9517402e-05
2.1121062e-06
3.1138299e-06
4.6105482e-05
1.7220197e-06
2.7597473e-06
4.3121558e-05
1.4089355e-06
2.4437429e-06
4.0515558e-05
1.1637552e-06
2.163346e-06
3.8237948e-05
9.7485851e-07
1.9152336e-06
3.6242683e-05
8.3055975e-07
1.6959573e-06
3.4488759e-05
7.2043696e-07
1.5022849e-06
3.2940716e-05
6.3586295e-07
1.3313172e-06
3.1568463e-05
5.7005005e-07
1.1804931e-06
3.0346733e-05
5.1784899e-07
1.0475522e-06
2.9254398e-05
4.7545954e-07
9.3049031e-07
2.8273782e-05
4.401396e-07
8.2752024e-07
2.7390054e-05
4.0994895e-07
7.3704009e-07
2.6590699e-05
3.8353958e-07
6.5760856e-07
2.5865102e-05
3.599889e-07
5.8793071e-07
2.5204198e-05
3.3867635e-07
5.2684262e-07
2.4600205e-05
3.1918359e-07
4.7330349e-07
2.4046429e-05
3.0120189e-07
4.2639016e-07
2.3537073e-05
2.8455205e-07
3.8526715e-07
2.3067119e-05
2.6911101e-07
3.491824e-07
2.2632208e-05
2.5478166e-07
3.1747784e-07
2.2228528e-05
2.414738e-07
2.8959532e-07
2.1852744e-05
2.291107e-07
2.6504125e-07
2.1501947e-05
2.1762893e-07
2.4337257e-07
2.1173591e-05
2.0696953e-07
2.2420571e-07
2.0865444e-05
1.9707569e-07
2.0720867e-07
2.0575549e-05
1.8789253e-07
1.9209396e-07
2.0302183e-05
1.793672e-07
1.7861344e-07
2.0043829e-05
1.7144908e-07
1.6655322e-07
1.979915e-05
1.6408981e-07
1.5572944e-07
1.956696e-05
1.5724382e-07
1.4598403e-07
1.934621e-05
1.5086896e-07
1.3718217e-07
1.9135969e-05
1.4492653e-07
1.292088e-07
1.8935407e-05
1.3937907e-07
1.2196309e-07
1.8743783e-05
1.3419231e-07
1.1535763e-07
1.8560435e-05
1.2933513e-07
1.0931727e-07
1.8384766e-05
1.2477911e-07
1.0377716e-07
1.8216241e-05
1.2049854e-07
9.8681274e-08
1.8054377e-05
1.1647016e-07
9.3981309e-08
1.7898734e-05
1.1267295e-07
8.9635402e-08
1.7748917e-05
1.0908822e-07
8.5606998e-08
1.7604563e-05
1.0570004e-07
8.1862397e-08
1.7465345e-05
1.0249338e-07
7.8373289e-08
1.7330962e-05
9.9452957e-08
7.5116989e-08
1.7201138e-05
9.6564389e-08
7.2072737e-08
1.7075619e-05
9.3816648e-08
6.9221142e-08
1.695417e-05
9.1201105e-08
6.6545125e-08
1.6836577e-05
8.8709104e-08
6.4029557e-08
1.6722638e-05
8.6331953e-08
6.1661032e-08
1.661217e-05
8.4061763e-08
5.9427686e-08
1.6505001e-05
8.1891531e-08
5.7318851e-08
1.640097e-05
7.9814921e-08
5.5324844e-08
1.6299929e-05
7.7826132e-08
5.3437134e-08
1.620174e-05
7.591987e-08
5.1647911e-08
1.6106272e-05
7.4091023e-08
4.9950111e-08
1.6013404e-05
7.2334973e-08
4.8337361e-08
1.5923022e-05
7.0647691e-08
4.6803854e-08
1.5835019e-05
6.9025712e-08
4.5344255e-08
1.5749294e-05
6.7465526e-08
4.3953702e-08
1.5665753e-05
6.5963755e-08
4.2627724e-08
1.5584307e-05
6.451735e-08
4.1362198e-08
1.5504871e-05
6.3123431e-08
4.0153326e-08
1.5427366e-05
6.1779321e-08
3.8997799e-08
1.5351716e-05
6.0482558e-08
3.7892306e-08
1.5277852e-05
5.9230838e-08
3.6833834e-08
1.5205705e-05
5.8022016e-08
3.5819722e-08
1.5135212e-05
5.6854001e-08
3.4847347e-08
1.5066313e-05
5.5724988e-08
3.3914346e-08
1.499895e-05
5.4633131e-08
3.3018418e-08
1.493307e-05
5.3576729e-08
3.2157442e-08
1.4868621e-05
5.2554202e-08
3.132943e-08
1.4805554e-05
5.1563957e-08
3.0532435e-08
1.4743823e-05
5.0604503e-08
2.9764694e-08
1.4683386e-05
4.9674317e-08
2.9024358e-08
1.4624199e-05
4.8771788e-08
2.8309855e-08
1.4566226e-05
4.7895477e-08
2.7619606e-08
1.4509431e-05
4.7043503e-08
2.695196e-08
1.4453778e-05
4.6214122e-08
2.6305746e-08
1.4399237e-05
4.5405439e-08
2.5679865e-08
1.4345777e-05
4.4615721e-08
2.5073768e-08
1.4293367e-05
4.3844279e-08
2.4487684e-08
1.4241972e-05
4.3092872e-08
2.3923741e-08
1.4191548e-05
4.2369889e-08
2.3387159e-08
1.4142019e-05
4.169927e-08
2.288961e-08
1.4093249e-05
4.1141623e-08
2.2456637e-08
1.4044951e-05
4.0844643e-08
2.2146571e-08
1.3996485e-05
4.1169189e-08
2.2123039e-08
1.3946229e-05
4.3012277e-08
2.2985419e-08
1.389015e-05
4.8540261e-08
2.5565818e-08
6.3281565e-08
5.0000885e-08
0.00010603565
2.7876425e-06
6.4750379e-06
0.00010074799
4.4145412e-06
6.5685292e-06
9.5493515e-05
4.8594028e-06
6.1741158e-06
9.0256432e-05
4.930369e-06
5.9581921e-06
8.5101366e-05
4.8311767e-06
5.6908011e-06
8.0102875e-05
4.5561762e-06
5.3445981e-06
7.5322251e-05
4.1469521e-06
4.9614853e-06
7.0803266e-05
3.6678925e-06
4.5689837e-06
6.6576264e-05
3.1701903e-06
4.1811255e-06
6.2660725e-05
2.6900109e-06
3.8075976e-06
5.9065443e-05
2.2519319e-06
3.4554566e-06
5.5788936e-05
1.8697304e-06
3.1287957e-06
5.2820978e-05
1.5477473e-06
2.8291458e-06
5.014479e-05
1.2836302e-06
2.5563139e-06
4.7739304e-05
1.07123e-06
2.3091141e-06
4.5581183e-05
9.0281506e-07
2.0858661e-06
4.3646423e-05
7.7048782e-07
1.884709e-06
4.1911533e-05
6.6697376e-07
1.7037793e-06
4.0354306e-05
5.8598199e-07
1.541295e-06
3.8954268e-05
5.2230223e-07
1.3955849e-06
3.769288e-05
4.7175606e-07
1.265091e-06
3.6553576e-05
4.3107988e-07
1.1483634e-06
3.552169e-05
3.9778208e-07
1.0440533e-06
3.4584322e-05
3.6999882e-07
9.5090829e-07
3.3730181e-05
3.4635982e-07
8.6777017e-07
3.2949411e-05
3.2587762e-07
7.9356871e-07
3.2233419e-05
3.0784049e-07
7.2733485e-07
3.1574711e-05
2.9172985e-07
6.6818102e-07
3.0966769e-05
2.7719266e-07
6.1530127e-07
3.0403928e-05
2.63981e-07
5.6797016e-07
2.9881258e-05
2.5190848e-07
5.2554313e-07
2.9394455e-05
2.4082712e-07
4.8745e-07
2.8939761e-05
2.3062159e-07
4.5318329e-07
2.8513895e-05
2.2120152e-07
4.2229385e-07
2.8113985e-05
2.1249195e-07
3.9438672e-07
2.7737518e-05
2.0442796e-07
3.6911489e-07
2.7382285e-05
1.9695194e-07
3.4617383e-07
2.7046344e-05
1.9001177e-07
3.2529677e-07
2.6727982e-05
1.8355992e-07
3.0625044e-07
2.6425689e-05
1.7755273e-07
2.8883086e-07
2.6138123e-05
1.7195003e-07
2.7285984e-07
2.5864094e-05
1.6671515e-07
2.581818e-07
2.5602546e-05
1.6181456e-07
2.4466092e-07
2.535253e-05
1.5721711e-07
2.3217767e-07
2.51132e-05
1.5289443e-07
2.2062728e-07
2.4883797e-05
1.4882096e-07
2.0991775e-07
2.4663634e-05
1.4497367e-07
1.9996812e-07
2.4452094e-05
1.4133184e-07
1.9070706e-07
2.4248615e-05
1.3787697e-07
1.8207153e-07
2.405269e-05
1.3459265e-07
1.740057e-07
2.3863854e-05
1.3146461e-07
1.6645989e-07
2.3681684e-05
1.2848057e-07
1.5938926e-07
2.3505794e-05
1.2562919e-07
1.5275411e-07
2.3335829e-05
1.228987e-07
1.4651969e-07
2.3171462e-05
1.2027634e-07
1.406546e-07
2.3012394e-05
1.1775472e-07
1.3513021e-07
2.2858345e-05
1.1532969e-07
1.2992045e-07
2.2709057e-05
1.1299537e-07
1.2500174e-07
2.2564291e-05
1.1074518e-07
1.2035289e-07
2.2423824e-05
1.0857348e-07
1.1595459e-07
2.2287451e-05
1.0647549e-07
1.1178924e-07
2.2154978e-05
1.0444698e-07
1.078408e-07
2.2026226e-05
1.0248418e-07
1.0409459e-07
2.1901025e-05
1.005835e-07
1.0053716e-07
2.1779218e-05
9.874154e-08
9.7156154e-08
2.1660658e-05
9.6954892e-08
9.3940287e-08
2.1545205e-05
9.5221279e-08
9.0879053e-08
2.1432729e-05
9.3538789e-08
8.7962819e-08
2.1323107e-05
9.1905303e-08
8.5182642e-08
2.1216222e-05
9.0318496e-08
8.2530215e-08
2.1111965e-05
8.8776378e-08
7.9997889e-08
2.1010233e-05
8.72771e-08
7.7578617e-08
2.0910927e-05
8.5818955e-08
7.5265846e-08
2.0813956e-05
8.4400345e-08
7.3053429e-08
2.0719232e-05
8.3019701e-08
7.0935655e-08
2.0626671e-05
8.167564e-08
6.8907191e-08
2.0536195e-05
8.0366838e-08
6.6963121e-08
2.0447729e-05
7.9091958e-08
6.5098764e-08
2.0361203e-05
7.7849792e-08
6.3309767e-08
2.0276548e-05
7.6639214e-08
6.1592042e-08
2.0193702e-05
7.5458988e-08
5.9941738e-08
2.0112602e-05
7.4307975e-08
5.8355212e-08
2.0033193e-05
7.3184909e-08
5.6829065e-08
1.9955419e-05
7.2088599e-08
5.5359947e-08
1.9879228e-05
7.1017632e-08
5.3944836e-08
1.9804572e-05
6.997042e-08
5.2580718e-08
1.9731406e-05
6.8945271e-08
5.1264816e-08
1.9659685e-05
6.7940139e-08
4.9994384e-08
1.9589371e-05
6.695304e-08
4.8767043e-08
1.9520423e-05
6.5982316e-08
4.7580565e-08
1.9452807e-05
6.5028002e-08
4.6433108e-08
1.9386482e-05
6.4094093e-08
4.5323744e-08
1.9321404e-05
6.3194658e-08
4.4253086e-08
1.9257511e-05
6.2366313e-08
4.3225218e-08
1.9194705e-05
6.1695155e-08
4.225314e-08
1.9132798e-05
6.1374088e-08
4.1377419e-08
1.9071394e-05
6.1822406e-08
4.0750682e-08
1.9009424e-05
6.3924728e-08
4.1057622e-08
1.8944661e-05
6.9304659e-08
4.399886e-08
7.9170918e-08
7.4661554e-08
0.0001054937
1.9169871e-06
6.4880407e-06
0.00010005365
3.2729596e-06
6.5816334e-06
9.4926077e-05
3.8288995e-06
6.1580777e-06
8.9946373e-05
3.9838109e-06
5.9262629e-06
8.5163276e-05
3.9595077e-06
5.6547657e-06
8.0619137e-05
3.7899369e-06
5.3103784e-06
7.6329462e-05
3.5015547e-06
4.9350725e-06
7.230016e-05
3.1412013e-06
4.5559928e-06
6.8534206e-05
2.7514802e-06
4.1846641e-06
6.5032983e-05
2.3633493e-06
3.8278852e-06
6.1795789e-05
1.9984144e-06
3.490711e-06
5.8818843e-05
1.670376e-06
3.176301e-06
5.6094718e-05
1.3858295e-06
2.886043e-06
5.3612488e-05
1.1457945e-06
2.6200649e-06
5.1358373e-05
9.4764119e-07
2.3777043e-06
4.9316593e-05
7.8676783e-07
2.1578272e-06
4.7470246e-05
6.5779547e-07
1.9590391e-06
4.5802069e-05
5.553254e-07
1.7798252e-06
4.4295042e-05
4.7437117e-07
1.6186378e-06
4.293283e-05
4.1056671e-07
1.473948e-06
4.1700078e-05
3.6023238e-07
1.3442759e-06
4.0582591e-05
3.2035743e-07
1.2282094e-06
3.956742e-05
2.8853738e-07
1.1244154e-06
3.8642881e-05
2.6289065e-07
1.0316467e-06
3.7798527e-05
2.4196986e-07
9.4874401e-07
3.7025076e-05
2.2467703e-07
8.7465171e-07
3.6314324e-05
2.1018902e-07
8.084041e-07
3.5659057e-05
1.9788606e-07
7.4911042e-07
3.5052961e-05
1.8731582e-07
6.9597282e-07
3.449052e-05
1.7814869e-07
6.4827379e-07
3.3966922e-05
1.7013167e-07
6.0537438e-07
3.3477973e-05
1.6306726e-07
5.6670868e-07
3.3020016e-05
1.5680296e-07
5.3177543e-07
3.2589865e-05
1.5122055e-07
5.0013242e-07
3.218474e-05
1.4622561e-07
4.7139135e-07
3.1802215e-05
1.4174072e-07
4.4521231e-07
3.1440168e-05
1.3770091e-07
4.2129811e-07
3.1096739e-05
1.3405095e-07
3.9938921e-07
3.0770297e-05
1.3074293e-07
3.7925956e-07
3.0459402e-05
1.2773517e-07
3.6071195e-07
3.0162787e-05
1.249909e-07
3.4357479e-07
2.9879325e-05
1.2247782e-07
3.2769852e-07
2.960802e-05
1.2016735e-07
3.129527e-07
2.934798e-05
1.1803381e-07
2.9922355e-07
2.9098408e-05
1.1605465e-07
2.8641141e-07
2.885859e-05
1.1420984e-07
2.7442906e-07
2.8627882e-05
1.1248189e-07
2.6319994e-07
2.8405701e-05
1.1085558e-07
2.5265682e-07
2.819152e-05
1.0931759e-07
2.4274023e-07
2.7984859e-05
1.0785648e-07
2.3339754e-07
2.7785279e-05
1.0646278e-07
2.245821e-07
2.7592378e-05
1.0512871e-07
2.1625215e-07
2.740579e-05
1.0384736e-07
2.0837036e-07
2.7225174e-05
1.0261115e-07
2.009036e-07
2.705022e-05
1.0140744e-07
1.9382257e-07
2.6880641e-05
1.0023384e-07
1.8710043e-07
2.6716166e-05
9.9092368e-08
1.8071227e-07
2.6556546e-05
9.798001e-08
1.7463556e-07
2.6401548e-05
9.6892514e-08
1.6885012e-07
2.6250957e-05
9.5827089e-08
1.6333743e-07
2.610457e-05
9.4781695e-08
1.5808043e-07
2.5962199e-05
9.3754729e-08
1.5306361e-07
2.5823666e-05
9.2744829e-08
1.482726e-07
2.5688804e-05
9.1750973e-08
1.4369412e-07
2.5557458e-05
9.0771744e-08
1.39316e-07
2.5429481e-05
8.9805179e-08
1.3512694e-07
2.5304734e-05
8.8851444e-08
1.3111645e-07
2.5183087e-05
8.7911212e-08
1.2727467e-07
2.5064416e-05
8.6983931e-08
1.2359242e-07
2.4948604e-05
8.6068893e-08
1.2006121e-07
2.4835542e-05
8.5165791e-08
1.1667299e-07
2.4725124e-05
8.4274308e-08
1.1342048e-07
2.4617252e-05
8.3394268e-08
1.1029655e-07
2.4511832e-05
8.2525493e-08
1.0729477e-07
2.4408775e-05
8.1667777e-08
1.04409e-07
2.4307997e-05
8.0820994e-08
1.0163345e-07
2.4209416e-05
7.9985052e-08
9.8962666e-08
2.4112956e-05
7.9159741e-08
9.6391554e-08
2.4018546e-05
7.8345004e-08
9.3915299e-08
2.3926115e-05
7.7540714e-08
9.1529303e-08
2.3835598e-05
7.6746536e-08
8.9229252e-08
2.3746933e-05
7.5962296e-08
8.7011036e-08
2.366006e-05
7.5187632e-08
8.4870714e-08
2.3574922e-05
7.4421974e-08
8.2804541e-08
2.3491466e-05
7.366462e-08
8.0808924e-08
2.3409641e-05
7.2914637e-08
7.8880375e-08
2.33294e-05
7.2170698e-08
7.7015491e-08
2.3250698e-05
7.1431308e-08
7.5211036e-08
2.3173493e-05
7.0694853e-08
7.3463621e-08
2.3097745e-05
6.9960202e-08
7.1770105e-08
2.3023418e-05
6.9227982e-08
7.0127033e-08
2.2950477e-05
6.8503485e-08
6.8531199e-08
2.2878889e-05
6.7802853e-08
6.6979716e-08
2.2808619e-05
6.7165033e-08
6.5471569e-08
2.2739625e-05
6.6675232e-08
6.4013366e-08
2.267185e-05
6.6507076e-08
6.264232e-08
2.2605149e-05
6.6990743e-08
6.1532385e-08
2.2538888e-05
6.8686038e-08
6.1499926e-08
2.2471121e-05
7.2226958e-08
6.4845131e-08
7.6722832e-08
9.8461354e-08
0.0001051979
1.3340885e-06
6.4961221e-06
9.9496561e-05
2.3731022e-06
6.6011947e-06
9.4262459e-05
2.9019223e-06
6.1610799e-06
8.9251186e-05
3.0856641e-06
5.9094196e-06
8.4493498e-05
3.0947347e-06
5.6224614e-06
8.0033635e-05
2.9846656e-06
5.265134e-06
7.5876907e-05
2.7790155e-06
4.8792667e-06
7.2014635e-05
2.5106844e-06
4.4927895e-06
6.8436293e-05
2.2128728e-06
4.1169489e-06
6.5131387e-05
1.9107259e-06
3.7575292e-06
6.208941e-05
1.6217321e-06
3.4186596e-06
5.9299432e-05
1.3573878e-06
3.1029661e-06
5.6749589e-05
1.1240344e-06
2.8116386e-06
5.4426788e-05
9.237795e-07
2.5448158e-06
5.2316754e-05
7.5572798e-07
2.3019466e-06
5.0404313e-05
6.1717856e-07
2.0820302e-06
4.8673788e-05
5.0454352e-07
1.8837772e-06
4.7109414e-05
4.1397181e-07
1.7057274e-06
4.5695713e-05
3.4173648e-07
1.5463363e-06
4.4417792e-05
2.8445145e-07
1.4040359e-06
4.3261575e-05
2.3917113e-07
1.277278e-06
4.2213952e-05
2.0341503e-07
1.1645652e-06
4.1262871e-05
1.7514744e-07
1.0644718e-06
4.039737e-05
1.5273237e-07
9.7565894e-07
3.9607583e-05
1.3487533e-07
8.9688145e-07
3.8884688e-05
1.2055571e-07
8.270164e-07
3.8220848e-05
1.0901092e-07
7.6501855e-07
3.7609155e-05
9.9633864e-08
7.0994488e-07
3.7043542e-05
9.1977451e-08
6.6095088e-07
3.6518702e-05
8.5705797e-08
6.1728289e-07
3.6030009e-05
8.0552369e-08
5.7827308e-07
3.5573433e-05
7.6308263e-08
5.4333413e-07
3.5145475e-05
7.2811257e-08
5.1195029e-07
3.4743091e-05
6.9934112e-08
4.8367022e-07
3.4363641e-05
6.7575431e-08
4.5810064e-07
3.4004828e-05
6.5652894e-08
4.3489995e-07
3.3664659e-05
6.4098603e-08
4.1377213e-07
3.3341393e-05
6.2855905e-08
3.9446096e-07
3.3033513e-05
6.1877015e-08
3.767453e-07
3.2739693e-05
6.1121085e-08
3.6043421e-07
3.2458768e-05
6.0553057e-08
3.4536329e-07
3.2189712e-05
6.0142662e-08
3.3139057e-07
3.1931622e-05
5.9863657e-08
3.1839377e-07
3.1683696e-05
5.9693149e-08
3.0626737e-07
3.1445219e-05
5.9611219e-08
2.9492012e-07
3.1215555e-05
5.9600645e-08
2.8427315e-07
3.0994132e-05
5.9646524e-08
2.7425806e-07
3.0780436e-05
5.9736178e-08
2.6481539e-07
3.0574002e-05
5.9858672e-08
2.5589331e-07
3.0374407e-05
6.0004937e-08
2.4744661e-07
3.0181267e-05
6.0167626e-08
2.394355e-07
2.9994229e-05
6.0341235e-08
2.3182487e-07
2.9812971e-05
6.0521834e-08
2.2458377e-07
2.9637193e-05
6.0704482e-08
2.1768456e-07
2.9466629e-05
6.0867279e-08
2.1110459e-07
2.9301024e-05
6.1016984e-08
2.0482181e-07
2.914014e-05
6.1160864e-08
1.9881572e-07
2.8983756e-05
6.1294935e-08
1.9306838e-07
2.8831669e-05
6.1415462e-08
1.8756391e-07
2.8683688e-05
6.152093e-08
1.8228764e-07
2.8539633e-05
6.1610564e-08
1.7722636e-07
2.8399336e-05
6.1683806e-08
1.7236782e-07
2.8262639e-05
6.1740477e-08
1.6770087e-07
2.8129394e-05
6.1780664e-08
1.6321518e-07
2.7999461e-05
6.1803887e-08
1.589012e-07
2.7872709e-05
6.1807366e-08
1.5475037e-07
2.7749012e-05
6.1793545e-08
1.507544e-07
2.7628253e-05
6.1764822e-08
1.4690559e-07
2.7510319e-05
6.1720996e-08
1.4319661e-07
2.7395105e-05
6.1662146e-08
1.3962087e-07
2.728251e-05
6.1588639e-08
1.36172e-07
2.7172439e-05
6.1501064e-08
1.3284422e-07
2.7064802e-05
6.1399994e-08
1.2963193e-07
2.6959511e-05
6.1285966e-08
1.2652992e-07
2.6856486e-05
6.1159521e-08
1.2353326e-07
2.6755649e-05
6.1021311e-08
1.2063729e-07
2.6656924e-05
6.0871853e-08
1.1783765e-07
2.6560242e-05
6.0711716e-08
1.1513015e-07
2.6465535e-05
6.0541354e-08
1.1251077e-07
2.6372738e-05
6.0361311e-08
1.0997577e-07
2.6281791e-05
6.0171908e-08
1.0752155e-07
2.6192636e-05
5.9973524e-08
1.0514469e-07
2.6105215e-05
5.9766316e-08
1.0284182e-07
2.6019477e-05
5.9550277e-08
1.0060974e-07
2.5935371e-05
5.9325167e-08
9.8445289e-08
2.585285e-05
5.9090507e-08
9.6345376e-08
2.5771868e-05
5.884549e-08
9.4306936e-08
2.5692384e-05
5.8588996e-08
9.2326763e-08
2.5614357e-05
5.8319785e-08
9.0401405e-08
2.5537753e-05
5.8037061e-08
8.8527309e-08
2.5462539e-05
5.774161e-08
8.6700194e-08
2.5388689e-05
5.7438403e-08
8.4915151e-08
2.5316184e-05
5.7141398e-08
8.3166629e-08
2.5245017e-05
5.688257e-08
8.1449679e-08
2.51752e-05
5.672605e-08
7.9765841e-08
2.510677e-05
5.6787894e-08
7.8149206e-08
2.5039729e-05
5.7251596e-08
7.678099e-08
2.4973573e-05
5.8330974e-08
7.6510242e-08
2.4906079e-05
5.9989473e-08
7.9732164e-08
6.071501e-08
1.1287823e-07
0.00010503672
9.0789372e-07
6.5005614e-06
9.9140653e-05
1.6524914e-06
6.6166802e-06
9.3788329e-05
2.0825241e-06
6.1717217e-06
8.8708526e-05
2.2549373e-06
5.91053e-06
8.3909682e-05
2.278404e-06
5.6151748e-06
7.9437109e-05
2.2074821e-06
5.2497564e-06
7.5296201e-05
2.0645348e-06
4.8553893e-06
7.1474034e-05
1.8722543e-06
4.4605969e-06
6.7955013e-05
1.6547667e-06
4.0771269e-06
6.4723621e-05
1.4313505e-06
3.7107669e-06
6.1764423e-05
1.2154298e-06
3.3655007e-06
5.9062056e-05
1.0158641e-06
3.0438911e-06
5.6601108e-05
8.3782745e-07
2.7471548e-06
5.4365944e-05
6.8344646e-07
2.475497e-06
5.2340648e-05
5.5258527e-07
2.2284384e-06
5.0509125e-05
4.4366547e-07
2.0050361e-06
4.8855299e-05
3.5433461e-07
1.8040352e-06
4.7363353e-05
2.8193592e-07
1.6239821e-06
4.6017963e-05
2.2381345e-07
1.4633127e-06
4.4804502e-05
1.7749382e-07
1.3204181e-06
4.3709199e-05
1.4078087e-07
1.1936935e-06
4.2719248e-05
1.1179157e-07
1.081575e-06
4.1822875e-05
8.8954527e-08
9.825658e-07
4.1009364e-05
7.0988035e-08
8.952547e-07
4.0269054e-05
5.6861843e-08
8.1832381e-07
3.9593306e-05
4.5719156e-08
7.5058475e-07
3.8974405e-05
3.6977888e-08
6.9093436e-07
3.8405585e-05
3.0067378e-08
6.3838632e-07
3.7880869e-05
2.4650876e-08
5.9204241e-07
3.7395029e-05
2.044e-08
5.5110609e-07
3.6943514e-05
1.7190301e-08
5.1487716e-07
3.6522366e-05
1.4716727e-08
4.8273956e-07
3.6128148e-05
1.2874756e-08
4.5415391e-07
3.5757883e-05
1.1549896e-08
4.286494e-07
3.5408991e-05
1.0650762e-08
4.0581704e-07
3.5079238e-05
1.0103643e-08
3.853023e-07
3.4766689e-05
9.8482434e-09
3.6679877e-07
3.4469668e-05
9.8351073e-09
3.5004236e-07
3.4186716e-05
1.0022924e-08
3.3480555e-07
3.3916567e-05
1.0376986e-08
3.2089287e-07
3.3658116e-05
1.0868056e-08
3.081366e-07
3.3410395e-05
1.1470983e-08
2.9639283e-07
3.3172556e-05
1.2164222e-08
2.8553826e-07
3.2943852e-05
1.2929282e-08
2.7546719e-07
3.2723625e-05
1.3750162e-08
2.6608894e-07
3.2511286e-05
1.461307e-08
2.5732571e-07
3.2306316e-05
1.5506268e-08
2.4911067e-07
3.2108246e-05
1.6419559e-08
2.413862e-07
3.1916658e-05
1.7344606e-08
2.3410268e-07
3.1731171e-05
1.8274293e-08
2.2721711e-07
3.1551444e-05
1.9203159e-08
2.2069216e-07
3.1377162e-05
2.0127743e-08
2.144951e-07
3.1208038e-05
2.1048663e-08
2.085968e-07
3.10438e-05
2.1972814e-08
2.0297056e-07
3.0884232e-05
2.2827862e-08
1.9760739e-07
3.0729103e-05
2.3662973e-08
1.924823e-07
3.05782e-05
2.4490011e-08
1.8757384e-07
3.0431331e-05
2.5296273e-08
1.8286762e-07
3.0288318e-05
2.6077978e-08
1.7835078e-07
3.0148994e-05
2.6834274e-08
1.7401109e-07
3.0013202e-05
2.7564718e-08
1.6983756e-07
2.9880797e-05
2.8268972e-08
1.6582024e-07
2.975164e-05
2.8947427e-08
1.6195013e-07
2.9625601e-05
2.9600739e-08
1.5821895e-07
2.9502557e-05
3.0228553e-08
1.546192e-07
2.9382396e-05
3.0823586e-08
1.5114466e-07
2.9265007e-05
3.1393127e-08
1.4778878e-07
2.9150287e-05
3.1939567e-08
1.4454538e-07
2.9038137e-05
3.2461877e-08
1.4140901e-07
2.8928465e-05
3.2960044e-08
1.3837461e-07
2.8821181e-05
3.3434726e-08
1.354375e-07
2.8716203e-05
3.3886355e-08
1.3259331e-07
2.8613449e-05
3.4315538e-08
1.2983786e-07
2.8512845e-05
3.4722882e-08
1.2716738e-07
2.8414317e-05
3.5108984e-08
1.2457817e-07
2.8317797e-05
3.5474453e-08
1.2206682e-07
2.8223219e-05
3.5819911e-08
1.1963009e-07
2.813052e-05
3.6145913e-08
1.1726492e-07
2.803964e-05
3.6453084e-08
1.1496839e-07
2.7950522e-05
3.6741836e-08
1.1273772e-07
2.7863111e-05
3.7012789e-08
1.1057027e-07
2.7777355e-05
3.7266244e-08
1.0846343e-07
2.7693204e-05
3.75025e-08
1.0641475e-07
2.7610611e-05
3.7721626e-08
1.0442175e-07
2.752953e-05
3.792357e-08
1.02482e-07
2.744992e-05
3.8108005e-08
1.0059308e-07
2.7371738e-05
3.8274286e-08
9.8752302e-08
2.7294949e-05
3.8421559e-08
9.6956902e-08
2.7219516e-05
3.8548721e-08
9.5203633e-08
2.714541e-05
3.8655105e-08
9.3488606e-08
2.7072603e-05
3.8741137e-08
9.1806959e-08
2.7001079e-05
3.8810276e-08
9.0152336e-08
2.6930832e-05
3.8872085e-08
8.8516567e-08
2.6861877e-05
3.8947365e-08
8.6890556e-08
2.679426e-05
3.9073504e-08
8.526919e-08
2.6728065e-05
3.9306947e-08
8.3675938e-08
2.6663337e-05
3.9708309e-08
8.2271159e-08
2.659956e-05
4.0271972e-08
8.1836196e-08
2.6534295e-05
4.0698024e-08
8.4555743e-08
3.9620829e-08
1.1507133e-07
0.00010494757
5.6811082e-07
6.5033077e-06
9.8925416e-05
1.0462983e-06
6.6283517e-06
9.3480449e-05
1.3439845e-06
6.1835065e-06
8.8341777e-05
1.4751324e-06
5.9184763e-06
8.3502084e-05
1.4993911e-06
5.6187065e-06
7.9004057e-05
1.4572411e-06
5.2482679e-06
7.4853978e-05
1.3667382e-06
4.8478757e-06
7.1037378e-05
1.2423973e-06
4.4464569e-06
6.7536063e-05
1.0997693e-06
4.0563127e-06
6.4331998e-05
9.5192361e-07
3.683491e-06
6.1407318e-05
8.0805758e-07
3.3320524e-06
5.8744339e-05
6.7422204e-07
3.0046209e-06
5.6325632e-05
5.5404398e-07
2.7024907e-06
5.4133973e-05
4.4916747e-07
2.4259383e-06
5.2152298e-05
3.5972402e-07
2.1745359e-06
5.0363747e-05
2.8484515e-07
1.9473717e-06
4.875178e-05
2.2310002e-07
1.7432015e-06
4.7300339e-05
1.7281165e-07
1.5605647e-06
4.5994012e-05
1.3226571e-07
1.3978748e-06
4.4818177e-05
9.9840025e-08
1.2534891e-06
4.3759121e-05
7.4075598e-08
1.1257614e-06
4.2804123e-05
5.3707621e-08
1.0130814e-06
4.1941503e-05
3.7671251e-08
9.1390373e-07
4.1160627e-05
2.5096478e-08
8.2676728e-07
4.0451891e-05
1.5294194e-08
7.5030387e-07
3.980679e-05
7.5281757e-09
6.8329172e-07
3.9217543e-05
1.6727449e-09
6.2455201e-07
3.8677513e-05
-3.0330969e-09
5.7313083e-07
3.8180739e-05
-6.6486569e-09
5.2807355e-07
3.7722004e-05
-9.3594519e-09
4.885345e-07
3.7296777e-05
-1.1371774e-08
4.5378928e-07
3.6901113e-05
-1.2818228e-08
4.2319911e-07
3.6531588e-05
-1.3805322e-08
3.9620478e-07
3.6185236e-05
-1.441751e-08
3.7231875e-07
3.5859491e-05
-1.4721906e-08
3.5111774e-07
3.5552132e-05
-1.4772639e-08
3.3223577e-07
3.5261237e-05
-1.4613931e-08
3.1535726e-07
3.4985143e-05
-1.4282183e-08
3.0021091e-07
3.472241e-05
-1.3807703e-08
2.8656375e-07
3.4471787e-05
-1.3215898e-08
2.7421632e-07
3.4232185e-05
-1.2528188e-08
2.6299771e-07
3.4002657e-05
-1.1762834e-08
2.5276171e-07
3.3782373e-05
-1.0935241e-08
2.4338339e-07
3.3570606e-05
-1.0058782e-08
2.3475559e-07
3.3366714e-05
-9.1447477e-09
2.2678673e-07
3.3170131e-05
-8.2028083e-09
2.1939832e-07
3.2980356e-05
-7.2412386e-09
2.1252298e-07
3.279694e-05
-6.266908e-09
2.0610281e-07
3.2619482e-05
-5.2855514e-09
2.0008783e-07
3.2447623e-05
-4.3018205e-09
1.944348e-07
3.228104e-05
-3.3190676e-09
1.8910588e-07
3.2119438e-05
-2.3383314e-09
1.8406733e-07
3.1962554e-05
-1.3530397e-09
1.7928647e-07
3.1810075e-05
-2.7632635e-10
1.7472764e-07
3.1661878e-05
5.858183e-10
1.7043905e-07
3.1517732e-05
1.4356396e-09
1.6637294e-07
3.1377429e-05
2.3038405e-09
1.6248961e-07
3.1240792e-05
3.1586345e-09
1.5877485e-07
3.1107656e-05
3.9969594e-09
1.5521719e-07
3.0977867e-05
4.8171556e-09
1.518055e-07
3.0851284e-05
5.6179734e-09
1.4852966e-07
3.0727774e-05
6.3990408e-09
1.4538078e-07
3.0607209e-05
7.160936e-09
1.4235054e-07
3.0489473e-05
7.9059515e-09
1.394312e-07
3.037445e-05
8.6357427e-09
1.3661577e-07
3.0262049e-05
9.3206543e-09
1.3390394e-07
3.0152163e-05
9.9938168e-09
1.3128564e-07
3.0044697e-05
1.0650393e-08
1.2875513e-07
2.9939564e-05
1.1286753e-08
1.263083e-07
2.983668e-05
1.1903215e-08
1.2394089e-07
2.9735965e-05
1.2500162e-08
1.2164883e-07
2.9637345e-05
1.3077904e-08
1.1942844e-07
2.9540748e-05
1.363673e-08
1.1727618e-07
2.9446105e-05
1.4177011e-08
1.1518881e-07
2.9353352e-05
1.4699168e-08
1.1316336e-07
2.9262425e-05
1.5203529e-08
1.1119702e-07
2.9173268e-05
1.5690513e-08
1.0928707e-07
2.9085822e-05
1.6160403e-08
1.0743106e-07
2.9000035e-05
1.6613575e-08
1.0562663e-07
2.8915855e-05
1.7050394e-08
1.0387152e-07
2.8833233e-05
1.7471105e-08
1.0216361e-07
2.8752123e-05
1.787596e-08
1.0050083e-07
2.8672479e-05
1.8265099e-08
9.88811e-08
2.8594259e-05
1.8638568e-08
9.7302482e-08
2.8517424e-05
1.8996262e-08
9.5762935e-08
2.8441934e-05
1.9337802e-08
9.4260355e-08
2.8367753e-05
1.9662811e-08
9.2792352e-08
2.8294848e-05
1.9970482e-08
9.1356272e-08
2.8223187e-05
2.026001e-08
8.9948871e-08
2.8152746e-05
2.0530676e-08
8.8565935e-08
2.8083503e-05
2.0782577e-08
8.7201821e-08
2.8015447e-05
2.1017518e-08
8.584868e-08
2.7948582e-05
2.1240696e-08
8.4495839e-08
2.7882937e-05
2.1462715e-08
8.3129529e-08
2.7818575e-05
2.1699963e-08
8.1736505e-08
2.7755588e-05
2.1969278e-08
8.0324356e-08
2.7694014e-05
2.2266159e-08
7.9016088e-08
2.7633299e-05
2.2506277e-08
7.8480675e-08
2.7571004e-05
2.2393439e-08
8.0599469e-08
2.0993103e-08
1.0779944e-07
0.00010489986
2.7443378e-07
6.5049155e-06
9.8802772e-05
5.0716634e-07
6.6362236e-06
9.329591e-05
6.5854977e-07
6.1922972e-06
8.8116302e-05
7.2902549e-07
5.9257148e-06
8.3248198e-05