/*--------------------------------*- C++ -*----------------------------------*\
  =========                 |
  \\      /  F ield         | OpenFOAM: The Open Source CFD Toolbox
   \\    /   O peration     | Website:  https://openfoam.org
    \\  /    A nd           | Version:  7
     \\/     M anipulation  |
\*---------------------------------------------------------------------------*/
FoamFile
{
    version     2.0;
    format      ascii;
    class       surfaceScalarField;
    location    "50/water";
    object      phi;
}
// * * * * * * * * * * * * * * * * * * * * * * * * * * * * * * * * * * * * * //

dimensions      [1 0 -1 0 0 0 0];

internalField   nonuniform List<scalar> 
156660
(
9.9055062e-05
6.0021311e-06
6.0538955e-06
8.6845748e-05
6.0552987e-06
6.1540155e-06
7.5686063e-05
5.5111773e-06
5.6485082e-06
6.5439754e-05
5.040482e-06
5.2058271e-06
5.6265581e-05
4.4957119e-06
4.6784603e-06
4.8315834e-05
3.879821e-06
4.0699264e-06
4.1622599e-05
3.2524445e-06
3.4407906e-06
3.6122878e-05
2.6603865e-06
2.8393348e-06
3.1690482e-05
2.1343831e-06
2.298013e-06
2.8161387e-05
1.6925512e-06
1.8365432e-06
2.5360259e-05
1.3398594e-06
1.4612688e-06
2.3123714e-05
1.0697392e-06
1.1668062e-06
2.1314354e-05
8.6867263e-07
9.4068704e-07
1.9825074e-05
7.2104236e-07
7.6823776e-07
1.8576738e-05
6.1244245e-07
6.358929e-07
1.7512792e-05
5.3122569e-07
5.327206e-07
1.6593345e-05
4.6878039e-07
4.506669e-07
1.579009e-05
4.1912714e-07
3.8412728e-07
1.5082497e-05
3.782857e-07
3.2930831e-07
1.4455187e-05
3.436705e-07
2.836389e-07
1.3896242e-05
3.1361745e-07
2.4532745e-07
1.3396123e-05
2.8705259e-07
2.1306701e-07
1.2946995e-05
2.6327397e-07
1.8585326e-07
1.2542306e-05
2.418141e-07
1.628751e-07
1.217649e-05
2.223505e-07
1.4346602e-07
1.1844774e-05
2.0465234e-07
1.2706361e-07
1.1543034e-05
1.8854248e-07
1.1319699e-07
1.1267696e-05
1.7387413e-07
1.014645e-07
1.1015649e-05
1.6053314e-07
9.1513575e-08
1.0784227e-05
1.4842718e-07
8.2995008e-08
1.0571079e-05
1.3745419e-07
7.5694092e-08
1.0374131e-05
1.2751156e-07
6.9436153e-08
1.0191583e-05
1.1851145e-07
6.4036646e-08
1.0021869e-05
1.1037182e-07
5.9341482e-08
9.8636255e-06
1.030147e-07
5.5229287e-08
9.7156586e-06
9.6366736e-08
5.1600153e-08
9.576928e-06
9.0359629e-08
4.8370915e-08
9.4465247e-06
8.4930722e-08
4.5472581e-08
9.3236541e-06
8.0022776e-08
4.2847847e-08
9.2076208e-06
7.5584069e-08
4.0449203e-08
9.0978159e-06
7.1567993e-08
3.8236968e-08
8.9937058e-06
6.7932686e-08
3.6177426e-08
8.894819e-06
6.4646455e-08
3.4240337e-08
8.8007415e-06
6.1675619e-08
3.2401824e-08
8.7111092e-06
5.8989632e-08
3.0642708e-08
8.6256005e-06
5.6561496e-08
2.8947194e-08
8.5439306e-06
5.4367157e-08
2.7302719e-08
8.4658458e-06
5.2385193e-08
2.5699684e-08
8.391117e-06
5.0596756e-08
2.4132004e-08
8.3195338e-06
4.8985875e-08
2.2597257e-08
8.2508976e-06
4.7539673e-08
2.1096588e-08
8.185013e-06
4.6248491e-08
1.9636099e-08
8.1216809e-06
4.51051e-08
1.8226955e-08
8.0606749e-06
4.4102924e-08
1.6903095e-08
8.0017715e-06
4.3252259e-08
1.5651172e-08
7.944712e-06
4.2551251e-08
1.4508233e-08
7.8892151e-06
4.1996247e-08
1.3500635e-08
7.8349851e-06
4.1580182e-08
1.2649822e-08
7.7817249e-06
4.1289986e-08
1.197028e-08
7.7291631e-06
4.1102564e-08
1.1459186e-08
7.6770031e-06
4.0958615e-08
1.1201408e-08
7.6249836e-06
4.0822056e-08
1.1197508e-08
7.5729025e-06
4.068837e-08
1.1392689e-08
7.5205662e-06
4.0519564e-08
1.1816717e-08
7.4678225e-06
4.0285542e-08
1.2458088e-08
7.4145615e-06
3.9966068e-08
1.3294923e-08
7.3607521e-06
3.9534588e-08
1.4274861e-08
7.3064903e-06
3.8950264e-08
1.5311487e-08
7.2520349e-06
3.815756e-08
1.6297828e-08
7.197833e-06
3.7083754e-08
1.7118242e-08
7.1443878e-06
3.5612096e-08
1.7833022e-08
7.0924015e-06
3.3752481e-08
1.8233827e-08
7.0425633e-06
3.1517295e-08
1.8320838e-08
6.9955183e-06
2.8942655e-08
1.8102397e-08
6.951871e-06
2.6067476e-08
1.7579841e-08
6.9121147e-06
2.2980973e-08
1.6775325e-08
6.8766374e-06
1.9762925e-08
1.5714254e-08
6.8457203e-06
1.6489732e-08
1.4427385e-08
6.8195171e-06
1.3240218e-08
1.2962954e-08
6.798025e-06
1.0106981e-08
1.1385154e-08
6.7810802e-06
7.1827844e-09
9.7619123e-09
6.768361e-06
4.5662567e-09
8.1530342e-09
6.7594593e-06
2.2724482e-09
6.6291959e-09
6.7538497e-06
3.8028877e-10
5.2293057e-09
6.7508908e-06
-9.3746125e-10
3.8964029e-09
6.7500628e-06
-1.9459789e-09
2.7738948e-09
6.750854e-06
-2.6082372e-09
1.8170907e-09
6.7527892e-06
-3.0017677e-09
1.0664269e-09
6.7554374e-06
-3.1604273e-09
5.1226764e-10
6.7584476e-06
-3.1219279e-09
1.1172369e-10
6.7615965e-06
-2.9119519e-09
-2.3701589e-10
6.7646686e-06
-2.6249664e-09
-4.4716127e-10
6.7675425e-06
-2.297371e-09
-5.7646936e-10
6.7701488e-06
-1.9570791e-09
-6.4922227e-10
6.7724495e-06
-1.6220076e-09
-6.7871709e-10
6.7744529e-06
-1.2941007e-09
-7.091849e-10
6.77617e-06
-9.9021805e-10
-7.2689823e-10
6.777613e-06
-7.1586677e-10
-7.2702804e-10
6.7788206e-06
-4.9519329e-10
-7.1233575e-10
-6.2743914e-11
-4.3392139e-10
0.0001064644
4.1876433e-06
6.4612076e-06
0.00010020134
5.6954776e-06
6.6228791e-06
9.3658924e-05
5.7790879e-06
6.2745102e-06
8.7010745e-05
5.6515597e-06
6.0371006e-06
8.0421883e-05
5.3669758e-06
5.7175987e-06
7.4092782e-05
4.9022874e-06
5.3066345e-06
6.8165632e-05
4.3277167e-06
4.8518778e-06
6.2721089e-05
3.7176859e-06
4.3872433e-06
5.779757e-05
3.1240362e-06
3.9338661e-06
5.3401928e-05
2.581769e-06
3.506424e-06
4.9516091e-05
2.1118255e-06
3.1138718e-06
4.6104296e-05
1.7217783e-06
2.7597556e-06
4.3120498e-05
1.4087373e-06
2.4437328e-06
4.0514616e-05
1.1635953e-06
2.1633292e-06
3.8237113e-05
9.7472915e-07
1.9152169e-06
3.6241942e-05
8.3045344e-07
1.6959431e-06
3.4488103e-05
7.2034742e-07
1.5022723e-06
3.2940141e-05
6.3578558e-07
1.3313034e-06
3.156797e-05
5.6998175e-07
1.1804746e-06
3.0346327e-05
5.1778786e-07
1.047526e-06
2.9254086e-05
4.7540466e-07
9.3045362e-07
2.8273578e-05
4.4009054e-07
8.2747044e-07
2.7389971e-05
4.0990569e-07
7.3697457e-07
2.6590759e-05
3.835022e-07
6.5752421e-07
2.5865328e-05
3.5995731e-07
5.8782388e-07
2.5204621e-05
3.3864991e-07
5.2670953e-07
2.4600863e-05
3.1916109e-07
4.7314007e-07
2.4047363e-05
3.0118187e-07
4.2619199e-07
2.3538334e-05
2.8453318e-07
3.8502855e-07
2.3068776e-05
2.690939e-07
3.4889125e-07
2.2634338e-05
2.5476369e-07
3.1712907e-07
2.2231216e-05
2.4145142e-07
2.8918157e-07
2.1856095e-05
2.2908206e-07
2.6455111e-07
2.150608e-05
2.1759332e-07
2.4279364e-07
2.1178643e-05
2.0692685e-07
2.2352468e-07
2.0871572e-05
1.9702722e-07
2.0641015e-07
2.058293e-05
1.8784188e-07
1.911599e-07
2.0311017e-05
1.7932104e-07
1.7752245e-07
2.0054342e-05
1.714182e-07
1.6527975e-07
1.9811593e-05
1.6409035e-07
1.5424289e-07
1.9581615e-05
1.5729808e-07
1.4424779e-07
1.9363389e-05
1.5100621e-07
1.3515186e-07
1.915602e-05
1.4518437e-07
1.2683192e-07
1.8958713e-05
1.3980411e-07
1.1917794e-07
1.877077e-05
1.3484019e-07
1.120924e-07
1.8591572e-05
1.3027041e-07
1.0548909e-07
1.8420573e-05
1.2607456e-07
9.9292408e-08
1.8257287e-05
1.2223412e-07
9.3436722e-08
1.8101285e-05
1.1873162e-07
8.7866701e-08
1.7952184e-05
1.1555021e-07
8.2537582e-08
1.7809633e-05
1.1267378e-07
7.7416415e-08
1.7673312e-05
1.1008687e-07
7.2482779e-08
1.7542914e-05
1.0777421e-07
6.7729016e-08
1.741813e-05
1.0572051e-07
6.3165969e-08
1.729866e-05
1.0391981e-07
5.8802755e-08
1.7184184e-05
1.0235821e-07
5.4669184e-08
1.7074368e-05
1.0102e-07
5.0791942e-08
1.6968869e-05
9.9885484e-08
4.719392e-08
1.686734e-05
9.8926545e-08
4.3892053e-08
1.6769447e-05
9.8101423e-08
4.0894564e-08
1.6674844e-05
9.7343985e-08
3.8217063e-08
1.6583214e-05
9.659233e-08
3.5860515e-08
1.6494258e-05
9.5778265e-08
3.3866034e-08
1.6407699e-05
9.4816683e-08
3.2261487e-08
1.6323307e-05
9.3623256e-08
3.1054378e-08
1.6240901e-05
9.2092474e-08
3.0279979e-08
1.6160391e-05
9.0116151e-08
2.9927951e-08
1.6081833e-05
8.7612528e-08
2.9895544e-08
1.6005454e-05
8.451999e-08
3.00164e-08
1.5931653e-05
8.0790502e-08
3.0094148e-08
1.5860942e-05
7.6372031e-08
2.9951356e-08
1.5793955e-05
7.1281209e-08
2.9458899e-08
1.5731305e-05
6.5552181e-08
2.8614348e-08
1.5673536e-05
5.9230221e-08
2.7481948e-08
1.5621154e-05
5.2449937e-08
2.5999766e-08
1.5574517e-05
4.5394205e-08
2.4223335e-08
1.5533855e-05
3.8242806e-08
2.2182475e-08
1.5499284e-05
3.1165673e-08
1.9894776e-08
1.5470779e-05
2.4335021e-08
1.7409993e-08
1.5448147e-05
1.7920256e-08
1.4818354e-08
1.5431043e-05
1.2083686e-08
1.2203026e-08
1.5418913e-05
7.0443529e-09
9.6526018e-09
1.5411178e-05
2.7358191e-09
7.2710355e-09
1.5407102e-05
-6.4857206e-10
5.1052468e-09
1.540603e-05
-3.1608602e-09
3.2951107e-09
1.5407208e-05
-4.9795018e-09
1.8560543e-09
1.5410024e-05
-6.1694722e-09
7.444077e-10
1.5413898e-05
-6.7546229e-09
-1.2061042e-10
1.5418286e-05
-6.8570777e-09
-6.9114703e-10
1.5422808e-05
-6.5927591e-09
-1.0519788e-09
1.5427215e-05
-6.0569228e-09
-1.2621554e-09
1.5431325e-05
-5.3602908e-09
-1.3744514e-09
1.5435028e-05
-4.5882642e-09
-1.411714e-09
1.5438273e-05
-3.798113e-09
-1.4039506e-09
1.5441046e-05
-3.0286382e-09
-1.3664563e-09
1.5443366e-05
-2.2927548e-09
-1.3213365e-09
1.5445261e-05
-1.6091657e-09
-1.2766507e-09
1.5446761e-05
-9.8374271e-10
-1.2317764e-09
1.5447874e-05
-4.1589428e-10
-1.1921763e-09
3.1308502e-10
-8.227818e-10
0.00010603463
2.7877033e-06
6.4763966e-06
0.00010074724
4.414669e-06
6.5682053e-06
9.5492734e-05
4.8594712e-06
6.1741184e-06
9.0255623e-05
4.9304282e-06
5.9582429e-06
8.5100497e-05
4.8312172e-06
5.6908845e-06
8.0101898e-05
4.5561623e-06
5.3447235e-06
7.5321145e-05
4.1468566e-06
4.9616129e-06
7.0802049e-05
3.6677146e-06
4.5690674e-06
6.6574989e-05
3.1699569e-06
4.1811397e-06
6.2659456e-05
2.6897604e-06
3.807541e-06
5.9064241e-05
2.2516956e-06
3.4553451e-06
5.5787842e-05
1.8695253e-06
3.1286523e-06
5.282001e-05
1.5475776e-06
2.8289918e-06
5.0143947e-05
1.2834928e-06
2.5561649e-06
4.773858e-05
1.0711188e-06
2.3089781e-06
4.5580565e-05
9.0272336e-07
2.0857451e-06
4.3645901e-05
7.7040978e-07
1.8846012e-06
4.1911101e-05
6.6690473e-07
1.703681e-06
4.0353962e-05
5.8591856e-07
1.5412023e-06
3.8954014e-05
5.2224196e-07
1.3954943e-06
3.7692721e-05
4.7169713e-07
1.2649998e-06
3.6553522e-05
4.3102064e-07
1.1482694e-06
3.5521752e-05
3.97721e-07
1.0439545e-06
3.4584518e-05
3.6993394e-07
9.5080254e-07
3.3730532e-05
3.4628864e-07
8.6765482e-07
3.2949944e-05
3.2579656e-07
7.9344101e-07
3.2234169e-05
3.0774491e-07
7.2719164e-07
3.1575718e-05
2.9161412e-07
6.6801877e-07
3.0968084e-05
2.7705064e-07
6.1511574e-07
3.0405616e-05
2.6380645e-07
5.6775536e-07
2.9883393e-05
2.5169203e-07
5.2529526e-07
2.9397122e-05
2.4055765e-07
4.8716421e-07
2.8943063e-05
2.3028823e-07
4.5285303e-07
2.8517951e-05
2.2079333e-07
4.2191214e-07
2.8118934e-05
2.1199761e-07
3.9394603e-07
2.7743518e-05
2.038365e-07
3.6860679e-07
2.7389518e-05
1.9625375e-07
3.4558847e-07
2.7055017e-05
1.8919975e-07
3.2462248e-07
2.6738331e-05
1.8263079e-07
3.054729e-07
2.6437981e-05
1.7650853e-07
2.8793244e-07
2.615266e-05
1.7079969e-07
2.7181847e-07
2.5881221e-05
1.654763e-07
2.569698e-07
2.5622646e-05
1.6051531e-07
2.4324333e-07
2.5376042e-05
1.5589767e-07
2.3051097e-07
2.5140616e-05
1.5160808e-07
2.1865747e-07
2.4915674e-05
1.4763452e-07
2.0757876e-07
2.47006e-05
1.4396714e-07
1.9718108e-07
2.4494857e-05
1.4059668e-07
1.8738027e-07
2.4297973e-05
1.3751345e-07
1.7810211e-07
2.4109534e-05
1.3470571e-07
1.6928336e-07
2.3929176e-05
1.3215852e-07
1.6087314e-07
2.3756576e-05
1.2985285e-07
1.5283463e-07
2.3591439e-05
1.2776537e-07
1.4514601e-07
2.3433488e-05
1.2586917e-07
1.3780193e-07
2.3282461e-05
1.241393e-07
1.3080738e-07
2.3138094e-05
1.2254797e-07
1.2417695e-07
2.3000122e-05
1.2106911e-07
1.1792347e-07
2.2868277e-05
1.1967939e-07
1.1205096e-07
2.2742299e-05
1.1835362e-07
1.0655066e-07
2.2621942e-05
1.1705699e-07
1.0140186e-07
2.2506966e-05
1.1573246e-07
9.6587367e-08
2.2397151e-05
1.1430097e-07
9.2106396e-08
2.2292283e-05
1.1264657e-07
8.799952e-08
2.2192154e-05
1.1061594e-07
8.432962e-08
2.2096557e-05
1.0806239e-07
8.1158088e-08
2.2005294e-05
1.0482477e-07
7.8530686e-08
2.1918221e-05
1.0076779e-07
7.6421544e-08
2.1835287e-05
9.5834426e-08
7.4711721e-08
2.1756577e-05
9.0030928e-08
7.3199573e-08
2.168231e-05
8.3450054e-08
7.1606966e-08
2.1612831e-05
7.6220003e-08
6.9631172e-08
2.1548554e-05
6.8495544e-08
6.7062441e-08
2.1489845e-05
6.0456205e-08
6.3805442e-08
2.1437009e-05
5.2273812e-08
5.9792533e-08
2.1390293e-05
4.4106976e-08
5.5058594e-08
2.1349786e-05
3.6109615e-08
4.9791195e-08
2.1315474e-05
2.8411233e-08
4.414437e-08
2.1287263e-05
2.1164105e-08
3.8212316e-08
2.1264959e-05
1.4507027e-08
3.2131706e-08
2.1248231e-05
8.5500563e-09
2.609817e-08
2.1236663e-05
3.4034697e-09
2.0248733e-08
2.1229479e-05
-4.7763716e-10
1.4705693e-08
2.1226077e-05
-3.4191345e-09
9.5564773e-09
2.1225936e-05
-5.5229845e-09
5.0159283e-09
2.1228342e-05
-6.8938452e-09
1.3269708e-09
2.1232374e-05
-7.6468524e-09
-1.3650529e-09
2.1237245e-05
-7.9367508e-09
-3.1030168e-09
2.1242489e-05
-7.8709271e-09
-4.1280043e-09
2.1247761e-05
-7.4809637e-09
-4.6486753e-09
2.1252809e-05
-6.8452042e-09
-4.7957123e-09
2.1257459e-05
-6.0247438e-09
-4.6820882e-09
2.1261606e-05
-5.0981915e-09
-4.4083466e-09
2.1265201e-05
-4.1415734e-09
-4.0417825e-09
2.1268243e-05
-3.2112803e-09
-3.628776e-09
2.1270759e-05
-2.3395453e-09
-3.2052992e-09
2.1272786e-05
-1.5113006e-09
-2.8088329e-09
2.1274372e-05
-7.392854e-10
-2.4559716e-09
2.1275553e-05
-1.8553786e-11
-2.1460443e-09
2.1276382e-05
6.3799839e-10
-1.882501e-09
1.3809794e-09
-1.4011299e-09
0.00010549236
1.9170184e-06
6.4894174e-06
0.00010005268
3.273081e-06
6.5812617e-06
9.4925139e-05
3.8289831e-06
6.1580318e-06
8.9945417e-05
3.9838718e-06
5.9262787e-06
8.5162265e-05
3.9595501e-06
5.6548191e-06
8.0618012e-05
3.7899399e-06
5.3104747e-06
7.6328199e-05
3.5015009e-06
4.935169e-06
7.2298782e-05
3.1410909e-06
4.5560407e-06
6.8532772e-05
2.7513306e-06
4.1846363e-06
6.5031566e-05
2.3631853e-06
3.827781e-06
6.1794456e-05
1.9982576e-06
3.4905484e-06
5.8817637e-05
1.6702392e-06
3.1761056e-06
5.6093659e-05
1.385717e-06
2.8858385e-06
5.3611579e-05
1.1457049e-06
2.6198682e-06
5.1357603e-05
9.4757015e-07
2.3775239e-06
4.9315951e-05
7.8671021e-07
2.1576651e-06
4.7469722e-05
6.5774634e-07
1.9588934e-06
4.5801653e-05
5.5528081e-07
1.779692e-06
4.4294731e-05
4.7432804e-07
1.6185131e-06
4.2932622e-05
4.1052264e-07
1.4738285e-06
4.1699974e-05
3.6018524e-07
1.3441593e-06
4.0582596e-05
3.2030498e-07
1.2280937e-06
3.9567541e-05
2.884768e-07
1.1242992e-06
3.8643128e-05
2.6281856e-07
1.0315284e-06
3.7798913e-05
2.4188169e-07
9.4862171e-07
3.702562e-05
2.2456694e-07
8.7452348e-07
3.6315047e-05
2.1004954e-07
8.082675e-07
3.5659991e-05
1.9770795e-07
7.4896286e-07
3.5054141e-05
1.8708875e-07
6.9581147e-07
3.4491991e-05
1.7786099e-07
6.4809542e-07
3.3968739e-05
1.6976836e-07
6.0517623e-07
3.3480198e-05
1.6261082e-07
5.6648784e-07
3.3022723e-05
1.5623452e-07
5.3152868e-07
3.259314e-05
1.5051983e-07
4.9985646e-07
3.2188684e-05
1.4537069e-07
4.7108295e-07
3.1806944e-05
1.4070845e-07
4.4486826e-07
3.1445814e-05
1.3646787e-07
4.2091493e-07
3.1103457e-05
1.3259431e-07
3.9896314e-07
3.077826e-05
1.2904199e-07
3.7878587e-07
3.0468811e-05
1.2577265e-07
3.6018477e-07
3.0173869e-05
1.2275482e-07
3.4298629e-07
2.9892344e-05
1.1996338e-07
3.2703803e-07
2.9623275e-05
1.1737892e-07
3.1220573e-07
2.9365815e-05
1.1498718e-07
2.9837022e-07
2.911922e-05
1.1277825e-07
2.8542518e-07
2.8882833e-05
1.1074584e-07
2.7327519e-07
2.865608e-05
1.088857e-07
2.6183452e-07
2.8438456e-05
1.0719414e-07
2.5102643e-07
2.8229521e-05
1.0566563e-07
2.4078337e-07
2.8028888e-05
1.0429077e-07
2.3104751e-07
2.783622e-05
1.0305385e-07
2.217725e-07
2.7651217e-05
1.0193117e-07
2.1292478e-07
2.7473607e-05
1.0089024e-07
2.0448494e-07
2.7303138e-05
9.9890851e-08
1.9644808e-07
2.7139567e-05
9.8888834e-08
1.8882071e-07
2.6982661e-05
9.7837792e-08
1.8161644e-07
2.6832189e-05
9.669429e-08
1.748473e-07
2.6687931e-05
9.5421719e-08
1.6851581e-07
2.6549688e-05
9.398682e-08
1.6260957e-07
2.6417291e-05
9.235199e-08
1.5710183e-07
2.6290598e-05
9.0464325e-08
1.5196127e-07
2.6169492e-05
8.8241222e-08
1.4716548e-07
2.6053866e-05
8.55562e-08
1.4271645e-07
2.5943622e-05
8.2224667e-08
1.3863562e-07
2.5838632e-05
7.8129228e-08
1.3492258e-07
2.573876e-05
7.3144429e-08
1.315531e-07
2.5643916e-05
6.7158701e-08
1.2845248e-07
2.555407e-05
6.0215758e-08
1.2546451e-07
2.5469328e-05
5.2400221e-08
1.2237271e-07
2.5389911e-05
4.3974498e-08
1.1889315e-07
2.5316171e-05
3.5199784e-08
1.1475947e-07
2.5248558e-05
2.6307398e-08
1.0980148e-07
2.5187457e-05
1.7586215e-08
1.0397131e-07
2.5133187e-05
9.2441086e-09
9.7298942e-08
2.5085961e-05
1.4488536e-09
8.9884363e-08
2.5045756e-05
-5.626286e-09
8.1941316e-08
2.501244e-05
-1.1863868e-08
7.3591319e-08
2.498581e-05
-1.7022259e-08
6.4815587e-08
2.4965556e-05
-2.0931513e-08
5.5692756e-08
2.4951199e-05
-2.3548149e-08
4.6455721e-08
2.4942143e-05
-2.4894988e-08
3.7354322e-08
2.4937941e-05
-2.4979577e-08
2.8703559e-08
2.4937904e-05
-2.40808e-08
2.0699033e-08
2.494122e-05
-2.2448826e-08
1.3609214e-08
2.4947082e-05
-2.0281011e-08
7.5258824e-09
2.4954697e-05
-1.7759409e-08
2.4974603e-09
2.4963001e-05
-1.5054984e-08
-1.1865697e-09
2.4971042e-05
-1.2401967e-08
-3.5092998e-09
2.4978429e-05
-1.001495e-08
-4.8530006e-09
2.4985022e-05
-7.9185348e-09
-5.5204625e-09
2.4990746e-05
-6.0113884e-09
-5.7367296e-09
2.4995586e-05
-4.2968194e-09
-5.6418086e-09
2.4999583e-05
-2.8056543e-09
-5.3327635e-09
2.5002809e-05
-1.5452476e-09
-4.8922675e-09
2.5005363e-05
-5.0739486e-10
-4.3860078e-09
2.5007299e-05
4.3532427e-10
-3.8819021e-09
2.5008716e-05
1.2250973e-09
-3.3818956e-09
2.5009672e-05
1.9460588e-09
-2.9208573e-09
2.5010239e-05
2.6254711e-09
-2.5542431e-09
3.1248006e-09
-1.9809747e-09
0.0001051965
1.3341138e-06
6.4975246e-06
9.9495552e-05
2.3731843e-06
6.6008475e-06
9.4261477e-05
2.9019869e-06
6.1610711e-06
8.9250156e-05
3.0857063e-06
5.9094866e-06
8.4492374e-05
3.0947583e-06
5.6225732e-06
8.0032361e-05
2.9846606e-06
5.265292e-06
7.5875466e-05
2.7789715e-06
4.8794247e-06
7.201306e-05
2.5106015e-06
4.4928954e-06
6.8434655e-05
2.212762e-06
4.1169734e-06
6.5129768e-05
1.9106028e-06
3.7574702e-06
6.2087878e-05
1.6216117e-06
3.4185354e-06
5.9298034e-05
1.3572801e-06
3.1028031e-06
5.6748346e-05
1.1239438e-06
2.8114613e-06
5.4425704e-05
9.2370609e-07
2.5446411e-06
5.2315821e-05
7.5566908e-07
2.3017834e-06
5.0403521e-05
6.1713033e-07
2.0818808e-06
4.8673125e-05
5.0450211e-07
1.8836398e-06
4.7108873e-05
4.1393391e-07
1.7055987e-06
4.5695289e-05
3.4169945e-07
1.5462131e-06
4.4417483e-05
2.844129e-07
1.4039156e-06
4.326138e-05
2.3912884e-07
1.2771589e-06
4.2213873e-05
2.0336645e-07
1.164446e-06
4.1262909e-05
1.7508929e-07
1.0643516e-06
4.039753e-05
1.5266052e-07
9.7553648e-07
3.9607872e-05
1.3478448e-07
8.9675529e-07
3.8885115e-05
1.2043919e-07
8.2688475e-07
3.8221425e-05
1.0886033e-07
7.6487926e-07
3.7609899e-05
9.9438064e-08
7.0979566e-07
3.7044474e-05
9.172486e-08
6.6078933e-07
3.6519846e-05
8.5382454e-08
6.1710627e-07
3.6031395e-05
8.0141068e-08
5.7807881e-07
3.5575097e-05
7.5789083e-08
5.4311962e-07
3.5147457e-05
7.2161986e-08
5.1171286e-07
3.4745439e-05
6.9130272e-08
4.8340718e-07
3.436641e-05
6.6590222e-08
4.578095e-07
3.4008083e-05
6.4457263e-08
4.3457847e-07
3.3668471e-05
6.2661933e-08
4.1341813e-07
3.3345846e-05
6.1146783e-08
3.9407255e-07
3.3038703e-05
5.9864317e-08
3.7632053e-07
3.2745729e-05
5.8775263e-08
3.5997103e-07
3.2465777e-05
5.7847702e-08
3.4485904e-07
3.2197843e-05
5.7056297e-08
3.3084173e-07
3.1941044e-05
5.6381691e-08
3.1779532e-07
3.169461e-05
5.580978e-08
3.0561182e-07
3.145786e-05
5.5331062e-08
2.9419676e-07
3.12302e-05
5.493952e-08
2.8346708e-07
3.1011104e-05
5.4631354e-08
2.7334958e-07
3.0800116e-05
5.4402992e-08
2.6378006e-07
3.0596829e-05
5.4248858e-08
2.5470298e-07
3.040089e-05
5.4158598e-08
2.4607181e-07
3.0211979e-05
5.4114542e-08
2.3784982e-07
3.002981e-05
5.4089233e-08
2.3001119e-07
2.9854114e-05
5.4043946e-08
2.2254202e-07
2.9684636e-05
5.3929309e-08
2.1544016e-07
2.9521123e-05
5.3687912e-08
2.0871338e-07
2.9363328e-05
5.3258284e-08
2.0237511e-07
2.9211005e-05
5.2579348e-08
1.964379e-07
2.9063922e-05
5.1597149e-08
1.9090668e-07
2.8921875e-05
5.026086e-08
1.8577303e-07
2.8784695e-05
4.8518551e-08
1.8101405e-07
2.8652251e-05
4.6311197e-08
1.7659727e-07
2.8524445e-05
4.3559366e-08
1.7248711e-07
2.8401199e-05
4.0142788e-08
1.6866011e-07
2.8282502e-05
3.5800941e-08
1.6512056e-07
2.8168285e-05
3.0568328e-08
1.6177741e-07
2.8058495e-05
2.4380175e-08
1.5855407e-07
2.7953194e-05
1.7108216e-08
1.553519e-07
2.7852474e-05
8.9338242e-09
1.520016e-07
2.7756604e-05
-6.7194302e-11
1.4833784e-07
2.7665906e-05
-9.426067e-09
1.4409903e-07
2.7580855e-05
-1.8813808e-08
1.3906445e-07
2.7502021e-05
-2.7929084e-08
1.3307011e-07
2.7429969e-05
-3.6475051e-08
1.2611284e-07
2.7365142e-05
-4.4183542e-08
1.1825501e-07
2.7307955e-05
-5.0702655e-08
1.0933881e-07
2.7258631e-05
-5.5974239e-08
9.9671918e-08
2.7217262e-05
-5.9863627e-08
8.9368863e-08
2.7183782e-05
-6.2239096e-08
7.8696323e-08
2.7157934e-05
-6.3025796e-08
6.7942824e-08
2.7139235e-05
-6.2205424e-08
5.7355977e-08
2.7127046e-05
-5.9812356e-08
4.7106794e-08
2.7120632e-05
-5.6001851e-08
3.7435365e-08
2.7119091e-05
-5.111724e-08
2.8577434e-08
2.7121446e-05
-4.5555702e-08
2.0751803e-08
2.7126742e-05
-3.964521e-08
1.4068737e-08
2.7134115e-05
-3.3674207e-08
8.5414611e-09
2.7142816e-05
-2.7899842e-08
4.1440662e-09
2.7152073e-05
-2.249514e-08
8.364716e-10
2.7160988e-05
-1.7563692e-08
-1.3666579e-09
2.7168996e-05
-1.3207115e-08
-2.7198634e-09
2.7175926e-05
-9.5053657e-09
-3.4353439e-09
2.7181765e-05
-6.4198263e-09
-3.7162969e-09
2.7186574e-05
-3.9034598e-09
-3.711019e-09
2.7190452e-05
-1.8966654e-09
-3.5265383e-09
2.7193504e-05
-3.2038488e-10
-3.2393806e-09
2.7195845e-05
9.937276e-10
-2.899861e-09
2.7197583e-05
2.0259419e-09
-2.5380184e-09
2.7198789e-05
2.9122431e-09
-2.1726525e-09
2.7199525e-05
3.7208256e-09
-1.8314856e-09
4.2584946e-09
-1.2858648e-09
0.00010503532
9.0791205e-07
6.5019751e-06
9.9139615e-05
1.652544e-06
6.6163408e-06
9.3787311e-05
2.0825708e-06
6.1717207e-06
8.8707443e-05
2.2549692e-06
5.9106053e-06
8.3908484e-05
2.2784221e-06
5.6152943e-06
7.9435742e-05
2.2074819e-06
5.2499207e-06
7.5294653e-05
2.0645102e-06
4.8555508e-06
7.1472347e-05
1.8722049e-06
4.4607023e-06
6.7953264e-05
1.6546987e-06
4.0771465e-06
6.4721894e-05
1.4312736e-06
3.7106996e-06
6.1762785e-05
1.2153536e-06
3.3653663e-06
5.9060552e-05
1.0157957e-06
3.0437173e-06
5.6599759e-05
8.3777026e-07
2.7469669e-06
5.4364752e-05
6.8340081e-07
2.4753124e-06
5.2339606e-05
5.5254941e-07
2.2282657e-06
5.0508222e-05
4.436367e-07
2.0048773e-06
4.8854526e-05
3.5431002e-07
1.8038883e-06
4.7362703e-05
2.819131e-07
1.623844e-06
4.6017432e-05
2.2379031e-07
1.4631801e-06
4.4804088e-05
1.7746852e-07
1.3202886e-06
4.3708899e-05
1.4075155e-07
1.1935656e-06
4.2719062e-05
1.1175593e-07
1.0814476e-06
4.1822804e-05
8.8909741e-08
9.8243785e-07
4.1009409e-05
7.0930232e-08
8.9512496e-07
4.0269217e-05
5.6786236e-08
8.1819078e-07
3.959359e-05
4.5619897e-08
7.5044663e-07
3.8974813e-05
3.6848111e-08
6.9078861e-07
3.8406126e-05
2.989414e-08
6.3823095e-07
3.788155e-05
2.442656e-08
5.9187428e-07
3.7395859e-05
2.0151014e-08
5.5092219e-07
3.6944505e-05
1.6820927e-08
5.1467441e-07
3.652353e-05
1.4249118e-08
4.8251473e-07
3.61295e-05
1.2288736e-08
4.5390349e-07
3.5759438e-05
1.0822977e-08
4.2836996e-07
3.5410765e-05
9.7579407e-09
4.0550492e-07
3.508125e-05
9.0175382e-09
3.8495431e-07
3.4768961e-05
8.5394047e-09
3.6641195e-07
3.4472221e-05
8.2723958e-09
3.4961394e-07
3.4189578e-05
8.1744759e-09
3.3433314e-07
3.3919768e-05
8.2112432e-09
3.2037437e-07
3.366169e-05
8.3549286e-09
3.0757002e-07
3.3414387e-05
8.5834853e-09
2.9577612e-07
3.3177019e-05
8.8800864e-09
2.8486904e-07
3.2948854e-05
9.2325019e-09
2.7474241e-07
3.2729249e-05
9.6323214e-09
2.6530438e-07
3.2517638e-05
1.0074245e-08
2.5647568e-07
3.2313527e-05
1.0554726e-08
2.4818784e-07
3.2116478e-05
1.1070382e-08
2.4038189e-07
3.1926103e-05
1.1615803e-08
2.3300789e-07
3.1742056e-05
1.2181211e-08
2.2602461e-07
3.1564021e-05
1.2749828e-08
2.1939969e-07
3.1391704e-05
1.3295382e-08
2.1311031e-07
3.1224824e-05
1.3780434e-08
2.0714333e-07
3.1063103e-05
1.4156125e-08
2.0149502e-07
3.0906257e-05
1.4364244e-08
1.9616921e-07
3.0754001e-05
1.4340189e-08
1.9117399e-07
3.0606046e-05
1.4017651e-08
1.8651651e-07
3.0462111e-05
1.3335049e-08
1.8219751e-07
3.0321936e-05
1.2230269e-08
1.7820579e-07
3.0185292e-05
1.0646182e-08
1.745164e-07
3.0052001e-05
8.5097821e-09
1.7109183e-07
2.9921912e-05
5.7688691e-09
1.6787963e-07
2.9794837e-05
2.3832491e-09
1.6483418e-07
2.9670921e-05
-2.3506246e-09
1.6206785e-07
2.9549932e-05
-7.7200758e-09
1.5927803e-07
2.9431942e-05
-1.4038294e-08
1.5640775e-07
2.9317024e-05
-2.1296139e-08
1.5332223e-07
2.9205439e-05
-2.9349265e-08
1.4986844e-07
2.9097556e-05
-3.8005854e-08
1.4582173e-07
2.8994013e-05
-4.6921941e-08
1.4103847e-07
2.8895558e-05
-5.5738762e-08
1.3538064e-07
2.880298e-05
-6.4078197e-08
1.287268e-07
2.87171e-05
-7.1615112e-08
1.2102012e-07
2.8638695e-05
-7.8109435e-08
1.1233037e-07
2.856834e-05
-8.3406151e-08
1.0305885e-07
2.8506495e-05
-8.7312809e-08
9.3183481e-08
2.84534e-05
-8.9659974e-08
8.2891582e-08
2.8409087e-05
-9.029042e-08
7.2364117e-08
2.8373363e-05
-8.9105591e-08
6.1804423e-08
2.834579e-05
-8.6131829e-08
5.1498615e-08
2.8325717e-05
-8.1533105e-08
4.1794132e-08
2.8312326e-05
-7.5572556e-08
3.2961437e-08
2.8304657e-05
-6.8591066e-08
2.5142996e-08
2.8301692e-05
-6.1009751e-08
1.8419028e-08
2.8302401e-05
-5.3130692e-08
1.2776445e-08
2.8305829e-05
-4.5271221e-08
8.1695044e-09
2.8311142e-05
-3.7766749e-08
4.5539494e-09
2.8317606e-05
-3.0842203e-08
1.8827059e-09
2.8324486e-05
-2.4532899e-08
8.8809283e-11
2.8331149e-05
-1.8901453e-08
-9.6794508e-10
2.8337219e-05
-1.4050054e-08
-1.5259388e-09
2.8342559e-05
-1.0000387e-08
-1.7591235e-09
2.8347134e-05
-6.6946731e-09
-1.7835139e-09
2.8350963e-05
-4.0426192e-09
-1.6830171e-09
2.8354095e-05
-1.9422005e-09
-1.51033e-09
2.835664e-05
-2.7517673e-10
-1.2762665e-09
2.8358645e-05
1.0466585e-09
-1.0258838e-09
2.8360152e-05
2.1620367e-09
-7.5649586e-10
2.8361161e-05
3.1593939e-09
-4.4736873e-10
4.0423155e-09
3.6954769e-10
0.00010494616
5.6812355e-07
6.5047264e-06
9.8924359e-05
1.046331e-06
6.6280151e-06
9.3479405e-05
1.3440148e-06
6.1835094e-06
8.8340663e-05
1.475154e-06
5.9185579e-06
8.3500846e-05
1.4994036e-06
5.6188349e-06
7.9002642e-05
1.4572421e-06
5.248444e-06
7.4852377e-05
1.3667242e-06
4.8480511e-06
7.1035637e-05
1.2423679e-06
4.4465774e-06
6.7534259e-05
1.0997279e-06
4.0563481e-06
6.4330217e-05
9.5187579e-07
3.6834399e-06
6.1405627e-05
8.080092e-07
3.3319348e-06
5.8742781e-05
6.7417762e-07
3.0044643e-06
5.6324225e-05
5.5400603e-07
2.7023202e-06
5.4132718e-05
4.4913648e-07
2.4257707e-06
5.2151189e-05
3.5969915e-07
2.1743793e-06
5.0362774e-05
2.8482481e-07
1.9472276e-06
4.8750934e-05
2.2308243e-07
1.7430677e-06
4.7299614e-05
1.7279516e-07
1.5604379e-06
4.5993403e-05
1.3224892e-07
1.3977521e-06
4.4817681e-05
9.9821682e-08
1.2533683e-06
4.3758738e-05
7.4054353e-08
1.125641e-06
4.2803851e-05
5.3681859e-08
1.0129605e-06
4.1941341e-05
3.7638767e-08
9.1378136e-07
4.1160574e-05
2.5054601e-08
8.2664227e-07
4.0451947e-05
1.5238954e-08
7.5017465e-07
3.9806955e-05
7.4553655e-09
6.8315642e-07
3.9217812e-05
1.5835687e-09
6.244072e-07
3.8677893e-05
-3.1641979e-09
5.7297793e-07
3.8181226e-05
-6.814281e-09
5.2790758e-07
3.7722598e-05
-9.5736591e-09
4.8835269e-07
3.7297476e-05
-1.1646275e-08
4.5358895e-07
3.6901914e-05
-1.3166593e-08
4.2297757e-07
3.6532487e-05
-1.4243089e-08
3.959591e-07
3.6186226e-05
-1.496218e-08
3.720459e-07
3.5860562e-05
-1.539278e-08
3.5081473e-07
3.5553271e-05
-1.5590963e-08
3.3189948e-07
3.5262429e-05
-1.5602618e-08
3.1498445e-07
3.4986369e-05
-1.5465536e-08
2.9979831e-07
3.4723646e-05
-1.5210828e-08
2.8610804e-07
3.4473007e-05
-1.4863907e-08
2.7371414e-07
3.4233362e-05
-1.4445535e-08
2.6244583e-07
3.400376e-05
-1.3972008e-08
2.5215698e-07
3.3783374e-05
-1.3455924e-08
2.4272259e-07
3.3571477e-05
-1.2906338e-08
2.3403562e-07
3.3367434e-05
-1.2329544e-08
2.260045e-07
3.3170687e-05
-1.1729533e-08
2.1855078e-07
3.2980744e-05
-1.1108975e-08
2.1160744e-07
3.2797167e-05
-1.0470554e-08
2.0511743e-07
3.2619568e-05
-9.8183772e-09
1.9903302e-07
3.2447594e-05
-9.16005e-09
1.9331506e-07
3.228092e-05
-8.5087398e-09
1.8793297e-07
3.2119236e-05
-7.8850138e-09
1.828645e-07
3.1962239e-05
-7.3186183e-09
1.7809569e-07
3.1809624e-05
-6.8486233e-09
1.7361998e-07
3.1661074e-05
-6.5227243e-09
1.6943659e-07
3.1516262e-05
-6.3946946e-09
1.6554722e-07
3.1374848e-05
-6.5206993e-09
1.6195225e-07
3.1236494e-05
-6.9561389e-09
1.5864571e-07
3.1100867e-05
-7.754565e-09
1.5561125e-07
3.0967664e-05
-8.9690727e-09
1.5281907e-07
3.0836605e-05
-1.0656928e-08
1.5022538e-07
3.0707472e-05
-1.2875898e-08
1.4777798e-07
3.0580157e-05
-1.5699927e-08
1.4539774e-07
3.0454331e-05
-1.9353696e-08
1.4282889e-07
3.0330108e-05
-2.3689253e-08
1.4019261e-07
3.0207514e-05
-2.8783083e-08
1.3733899e-07
3.0086704e-05
-3.4601653e-08
1.3411498e-07
2.9968015e-05
-4.1024818e-08
1.3036502e-07
2.9851947e-05
-4.7865055e-08
1.259268e-07
2.9739212e-05
-5.4853042e-08
1.2066641e-07
2.9630691e-05
-6.16845e-08
1.1446679e-07
2.952735e-05
-6.8102635e-08
1.0736529e-07
2.9430194e-05
-7.3868328e-08
9.9408693e-08
2.9340168e-05
-7.877614e-08
9.0693226e-08
2.9258036e-05
-8.2662413e-08
8.1388091e-08
2.9184425e-05
-8.533656e-08
7.1634202e-08
2.9119755e-05
-8.6634432e-08
6.1644477e-08
2.9064218e-05
-8.6430002e-08
5.1676408e-08
2.9017739e-05
-8.4684342e-08
4.205836e-08
2.8979968e-05
-8.1462972e-08
3.3101501e-08
2.8950322e-05
-7.6971747e-08
2.5084503e-08
2.8928026e-05
-7.1439626e-08
1.8163352e-08
2.8912132e-05
-6.5038216e-08
1.2341732e-08
2.8901718e-05
-5.8249794e-08
7.6530778e-09
2.8895781e-05
-5.1178769e-08
3.9854993e-09
2.8893311e-05
-4.4057146e-08
1.2561103e-09
2.8893223e-05
-3.7089315e-08
-5.8943092e-10
2.8894605e-05
-3.0489753e-08
-1.7350471e-09
2.8896867e-05
-2.4488744e-08
-2.3056332e-09
2.8899617e-05
-1.9197883e-08
-2.4537417e-09
2.8902559e-05
-1.466437e-08
-2.3278469e-09
2.8905479e-05
-1.0873345e-08
-2.0468241e-09
2.8908238e-05
-7.7605432e-09
-1.6931048e-09
2.8910755e-05
-5.2396742e-09
-1.3196953e-09
2.8912985e-05
-3.2144882e-09
-9.5801806e-10
2.8914922e-05
-1.5746978e-09
-6.3799396e-10
2.8916576e-05
-2.3330774e-10
-3.733517e-10
2.8917904e-05
8.9498475e-10