/*--------------------------------*- C++ -*----------------------------------*\
  =========                 |
  \\      /  F ield         | OpenFOAM: The Open Source CFD Toolbox
   \\    /   O peration     | Website:  https://openfoam.org
    \\  /    A nd           | Version:  7
     \\/     M anipulation  |
\*---------------------------------------------------------------------------*/
FoamFile
{
    version     2.0;
    format      ascii;
    class       surfaceScalarField;
    location    "2300/water";
    object      phi;
}
// * * * * * * * * * * * * * * * * * * * * * * * * * * * * * * * * * * * * * //

dimensions      [1 0 -1 0 0 0 0];

internalField   nonuniform List<scalar> 
156660
(
9.9057239e-05
6.0010402e-06
6.0528092e-06
8.6847498e-05
6.0555113e-06
6.1542307e-06
7.5687891e-05
5.5111363e-06
5.6484701e-06
6.5441704e-05
5.0404182e-06
5.2057689e-06
5.6267661e-05
4.4956436e-06
4.6783991e-06
4.8318019e-05
3.8797648e-06
4.0698777e-06
4.1624776e-05
3.2524448e-06
3.4407981e-06
3.6124897e-05
2.660462e-06
2.839417e-06
3.1692235e-05
2.1345126e-06
2.2981489e-06
2.8162841e-05
1.6926975e-06
1.8366964e-06
2.5361437e-05
1.3399934e-06
1.4614113e-06
2.3124664e-05
1.0698477e-06
1.1669256e-06
2.1315127e-05
8.6875419e-07
9.4078226e-07
1.9825714e-05
7.2110065e-07
7.6831274e-07
1.8577278e-05
6.1248245e-07
6.3595306e-07
1.7513255e-05
5.3125222e-07
5.3277149e-07
1.6593744e-05
4.6879722e-07
4.5071349e-07
1.5790433e-05
4.1913715e-07
3.8417388e-07
1.5082784e-05
3.7829066e-07
3.2935849e-07
1.4455417e-05
3.4367127e-07
2.8369562e-07
1.3896409e-05
3.1361409e-07
2.4539334e-07
1.339622e-05
2.8704448e-07
2.1314454e-07
1.2947015e-05
2.6326032e-07
1.859451e-07
1.2542237e-05
2.4179366e-07
1.629846e-07
1.2176318e-05
2.2232209e-07
1.4359689e-07
1.1844484e-05
2.0461481e-07
1.2721882e-07
1.1542609e-05
1.8849496e-07
1.1337974e-07
1.1267116e-05
1.7381575e-07
1.0167795e-07
1.1014892e-05
1.6046268e-07
9.1760829e-08
1.0783252e-05
1.4833968e-07
8.3300571e-08
1.0569851e-05
1.3734905e-07
7.6052122e-08
1.0372614e-05
1.2738864e-07
6.9848319e-08
1.0189731e-05
1.1836809e-07
6.4514821e-08
1.001963e-05
1.1020447e-07
5.9896644e-08
9.8609388e-06
1.028192e-07
5.5871651e-08
9.7124594e-06
9.6137959e-08
5.2341382e-08
9.5731439e-06
9.0091176e-08
4.9224363e-08
9.4420759e-06
8.4614472e-08
4.6453587e-08
9.3184531e-06
7.9648666e-08
4.3974137e-08
9.2015723e-06
7.5139706e-08
4.1741076e-08
9.0908166e-06
7.103814e-08
3.9717553e-08
8.9856432e-06
6.7301163e-08
3.7872297e-08
8.8855708e-06
6.3894262e-08
3.6178162e-08
8.7901757e-06
6.0780105e-08
3.461493e-08
8.6990829e-06
5.7926152e-08
3.316662e-08
8.611959e-06
5.5303689e-08
3.1820136e-08
8.5285072e-06
5.2887405e-08
3.0564407e-08
8.4484619e-06
5.0655057e-08
2.9390274e-08
8.3715848e-06
4.8587025e-08
2.8290018e-08
8.2976614e-06
4.6666201e-08
2.7257197e-08
8.2264975e-06
4.4877445e-08
2.6286414e-08
8.1579202e-06
4.320879e-08
2.5368548e-08
8.0917731e-06
4.1649041e-08
2.4498035e-08
8.0279108e-06
4.0186975e-08
2.3675383e-08
7.9662005e-06
3.8812674e-08
2.2897536e-08
7.9065219e-06
3.7518415e-08
2.2160254e-08
7.8487639e-06
3.6297853e-08
2.146019e-08
7.7928242e-06
3.5145144e-08
2.0794605e-08
7.7386083e-06
3.4054663e-08
2.0161167e-08
7.6860293e-06
3.3021327e-08
1.9557682e-08
7.6350062e-06
3.2040778e-08
1.8982276e-08
7.5854642e-06
3.1109058e-08
1.8433055e-08
7.537333e-06
3.0222595e-08
1.7908465e-08
7.4905478e-06
2.9378226e-08
1.7406988e-08
7.4450476e-06
2.8572985e-08
1.6927174e-08
7.4007756e-06
2.7804236e-08
1.6467775e-08
7.3576783e-06
2.7069589e-08
1.6027642e-08
7.3157057e-06
2.6367047e-08
1.5605627e-08
7.2748103e-06
2.5694632e-08
1.5200674e-08
7.2349479e-06
2.5050574e-08
1.4811838e-08
7.1960766e-06
2.4433091e-08
1.4438205e-08
7.1581571e-06
2.384069e-08
1.407895e-08
7.1211518e-06
2.3271922e-08
1.3733272e-08
7.0850258e-06
2.2725497e-08
1.3400528e-08
7.0497457e-06
2.2200209e-08
1.307995e-08
7.0152799e-06
2.1694927e-08
1.2770896e-08
6.9815985e-06
2.1208586e-08
1.2472755e-08
6.9486733e-06
2.0740253e-08
1.2184911e-08
6.9164776e-06
2.0288972e-08
1.1906829e-08
6.8849858e-06
1.9853948e-08
1.1637847e-08
6.854174e-06
1.9434357e-08
1.1377448e-08
6.8240194e-06
1.9029466e-08
1.1125114e-08
6.7945006e-06
1.8638505e-08
1.0880247e-08
6.7655976e-06
1.8260781e-08
1.0642318e-08
6.7372913e-06
1.7895558e-08
1.0410748e-08
6.709564e-06
1.7542091e-08
1.0185069e-08
6.6823995e-06
1.7199635e-08
9.964879e-09
6.6557824e-06
1.6867297e-08
9.7498371e-09
6.6296983e-06
1.6544123e-08
9.5399967e-09
6.6041331e-06
1.6229266e-08
9.3359859e-09
6.5790714e-06
1.5921966e-08
9.1396814e-09
6.554494e-06
1.5622324e-08
8.9550899e-09
6.5303708e-06
1.5332536e-08
8.7906615e-09
6.5066467e-06
1.5060463e-08
8.6635744e-09
6.4832094e-06
1.4827808e-08
8.6095048e-09
6.4598103e-06
1.4693089e-08
8.7060238e-09
6.4358388e-06
1.4826393e-08
9.1451574e-09
6.4096303e-06
1.5741767e-08
1.0466731e-08
6.3782855e-06
1.8026565e-08
1.3318213e-08
3.2300208e-08
2.7923546e-08
0.00010646494
4.1872385e-06
6.4599816e-06
0.0001002019
5.695418e-06
6.6231353e-06
9.3659588e-05
5.7790389e-06
6.2744098e-06
8.7011589e-05
5.6514782e-06
6.0369386e-06
8.0422927e-05
5.366912e-06
5.7173941e-06
7.4094022e-05
4.9022832e-06
5.3063862e-06
6.8167026e-05
4.3278135e-06
4.8516272e-06
6.2722565e-05
3.717891e-06
4.387032e-06
5.7799049e-05
3.1243144e-06
3.9337145e-06
5.3403345e-05
2.5820689e-06
3.5063328e-06
4.9517402e-05
2.1121062e-06
3.1138299e-06
4.6105482e-05
1.7220197e-06
2.7597474e-06
4.3121558e-05
1.4089355e-06
2.4437429e-06
4.0515558e-05
1.1637552e-06
2.163346e-06
3.8237948e-05
9.7485848e-07
1.9152336e-06
3.6242683e-05
8.3055974e-07
1.6959573e-06
3.4488759e-05
7.2043697e-07
1.5022849e-06
3.2940716e-05
6.3586294e-07
1.3313172e-06
3.1568463e-05
5.7005001e-07
1.1804931e-06
3.0346733e-05
5.1784894e-07
1.0475522e-06
2.9254398e-05
4.7545953e-07
9.3049033e-07
2.8273782e-05
4.4013958e-07
8.2752026e-07
2.7390054e-05
4.0994894e-07
7.3704007e-07
2.6590699e-05
3.8353956e-07
6.5760854e-07
2.5865102e-05
3.5998889e-07
5.8793073e-07
2.5204198e-05
3.3867633e-07
5.2684262e-07
2.4600205e-05
3.191836e-07
4.7330348e-07
2.4046429e-05
3.0120194e-07
4.2639016e-07
2.3537073e-05
2.8455207e-07
3.8526715e-07
2.3067119e-05
2.6911102e-07
3.4918237e-07
2.2632208e-05
2.5478168e-07
3.1747784e-07
2.2228528e-05
2.4147383e-07
2.895953e-07
2.1852744e-05
2.2911072e-07
2.6504123e-07
2.1501947e-05
2.1762894e-07
2.4337258e-07
2.1173591e-05
2.0696951e-07
2.2420571e-07
2.0865444e-05
1.9707568e-07
2.0720867e-07
2.0575549e-05
1.8789256e-07
1.92094e-07
2.0302183e-05
1.7936721e-07
1.7861344e-07
2.0043829e-05
1.714491e-07
1.6655324e-07
1.979915e-05
1.6408983e-07
1.5572941e-07
1.956696e-05
1.5724382e-07
1.4598403e-07
1.934621e-05
1.5086893e-07
1.3718218e-07
1.9135969e-05
1.4492654e-07
1.2920882e-07
1.8935407e-05
1.3937906e-07
1.2196306e-07
1.8743783e-05
1.341923e-07
1.1535763e-07
1.8560435e-05
1.2933508e-07
1.0931727e-07
1.8384766e-05
1.2477908e-07
1.0377714e-07
1.8216241e-05
1.2049851e-07
9.8681297e-08
1.8054377e-05
1.1647011e-07
9.3981327e-08
1.7898734e-05
1.1267289e-07
8.9635438e-08
1.7748917e-05
1.0908823e-07
8.5606998e-08
1.7604563e-05
1.0570004e-07
8.1862413e-08
1.7465345e-05
1.0249337e-07
7.8373283e-08
1.7330962e-05
9.9452989e-08
7.5116991e-08
1.7201138e-05
9.6564381e-08
7.2072714e-08
1.7075619e-05
9.381663e-08
6.9221128e-08
1.695417e-05
9.120108e-08
6.6545109e-08
1.6836577e-05
8.8709133e-08
6.4029576e-08
1.6722638e-05
8.6331986e-08
6.1661057e-08
1.661217e-05
8.4061799e-08
5.9427697e-08
1.6505001e-05
8.1891527e-08
5.7318821e-08
1.640097e-05
7.9814915e-08
5.5324842e-08
1.6299929e-05
7.7826151e-08
5.3437135e-08
1.620174e-05
7.5919837e-08
5.1647899e-08
1.6106272e-05
7.4090987e-08
4.9950109e-08
1.6013404e-05
7.2334934e-08
4.8337362e-08
1.5923022e-05
7.0647702e-08
4.6803872e-08
1.5835019e-05
6.9025708e-08
4.534428e-08
1.5749294e-05
6.7465536e-08
4.3953715e-08
1.5665753e-05
6.5963805e-08
4.262771e-08
1.5584307e-05
6.4517363e-08
4.1362165e-08
1.5504871e-05
6.3123424e-08
4.0153346e-08
1.5427366e-05
6.1779322e-08
3.8997773e-08
1.5351716e-05
6.0482525e-08
3.7892292e-08
1.5277852e-05
5.9230821e-08
3.683385e-08
1.5205705e-05
5.8022019e-08
3.5819721e-08
1.5135212e-05
5.6854032e-08
3.4847372e-08
1.5066313e-05
5.5724996e-08
3.3914365e-08
1.499895e-05
5.4633137e-08
3.3018436e-08
1.493307e-05
5.357675e-08
3.2157446e-08
1.4868621e-05
5.2554194e-08
3.1329431e-08
1.4805554e-05
5.1563938e-08
3.053243e-08
1.4743823e-05
5.0604483e-08
2.9764695e-08
1.4683386e-05
4.9674286e-08
2.9024384e-08
1.4624199e-05
4.8771815e-08
2.8309854e-08
1.4566226e-05
4.789544e-08
2.7619551e-08
1.4509431e-05
4.7043488e-08
2.6951955e-08
1.4453778e-05
4.6214111e-08
2.6305783e-08
1.4399237e-05
4.5405391e-08
2.5679846e-08
1.4345777e-05
4.461568e-08
2.5073735e-08
1.4293367e-05
4.3844224e-08
2.4487697e-08
1.4241972e-05
4.3092813e-08
2.3923724e-08
1.4191548e-05
4.2369891e-08
2.338713e-08
1.4142019e-05
4.1699305e-08
2.288962e-08
1.4093249e-05
4.1141623e-08
2.2456599e-08
1.4044951e-05
4.0844654e-08
2.2146549e-08
1.3996485e-05
4.1169183e-08
2.212304e-08
1.3946229e-05
4.3012279e-08
2.298538e-08
1.389015e-05
4.8540239e-08
2.5565793e-08
6.3281543e-08
5.0000838e-08
0.00010603565
2.7876425e-06
6.4750379e-06
0.00010074799
4.4145413e-06
6.5685292e-06
9.5493515e-05
4.8594028e-06
6.1741158e-06
9.0256432e-05
4.930369e-06
5.9581921e-06
8.5101366e-05
4.8311767e-06
5.6908011e-06
8.0102875e-05
4.5561761e-06
5.3445981e-06
7.5322251e-05
4.1469521e-06
4.9614853e-06
7.0803266e-05
3.6678925e-06
4.5689837e-06
6.6576264e-05
3.1701903e-06
4.1811255e-06
6.2660725e-05
2.690011e-06
3.8075975e-06
5.9065443e-05
2.2519319e-06
3.4554566e-06
5.5788936e-05
1.8697304e-06
3.1287958e-06
5.2820978e-05
1.5477473e-06
2.8291458e-06
5.014479e-05
1.2836302e-06
2.5563139e-06
4.7739304e-05
1.07123e-06
2.309114e-06
4.5581183e-05
9.0281506e-07
2.0858661e-06
4.3646423e-05
7.7048778e-07
1.884709e-06
4.1911533e-05
6.669737e-07
1.7037793e-06
4.0354306e-05
5.8598196e-07
1.541295e-06
3.8954268e-05
5.2230221e-07
1.3955849e-06
3.769288e-05
4.7175608e-07
1.265091e-06
3.6553576e-05
4.3107988e-07
1.1483634e-06
3.552169e-05
3.9778207e-07
1.0440533e-06
3.4584322e-05
3.6999882e-07
9.5090829e-07
3.3730181e-05
3.4635986e-07
8.6777019e-07
3.2949411e-05
3.2587763e-07
7.9356871e-07
3.2233419e-05
3.0784048e-07
7.2733488e-07
3.1574711e-05
2.9172988e-07
6.6818103e-07
3.0966769e-05
2.7719269e-07
6.1530128e-07
3.0403928e-05
2.6398103e-07
5.679702e-07
2.9881258e-05
2.5190848e-07
5.2554314e-07
2.9394455e-05
2.4082713e-07
4.8745001e-07
2.8939761e-05
2.3062159e-07
4.5318329e-07
2.8513895e-05
2.2120153e-07
4.2229388e-07
2.8113985e-05
2.1249193e-07
3.9438674e-07
2.7737518e-05
2.0442797e-07
3.6911491e-07
2.7382285e-05
1.9695195e-07
3.4617383e-07
2.7046344e-05
1.9001178e-07
3.2529682e-07
2.6727982e-05
1.8355996e-07
3.0625045e-07
2.6425689e-05
1.7755273e-07
2.8883085e-07
2.6138123e-05
1.7195002e-07
2.7285985e-07
2.5864095e-05
1.6671516e-07
2.5818186e-07
2.5602546e-05
1.6181454e-07
2.4466094e-07
2.535253e-05
1.5721708e-07
2.3217765e-07
2.51132e-05
1.5289442e-07
2.2062727e-07
2.4883797e-05
1.4882096e-07
2.0991774e-07
2.4663634e-05
1.4497364e-07
1.9996815e-07
2.4452094e-05
1.4133183e-07
1.9070707e-07
2.4248615e-05
1.3787698e-07
1.8207152e-07
2.405269e-05
1.3459266e-07
1.7400571e-07
2.3863854e-05
1.3146462e-07
1.6645987e-07
2.3681684e-05
1.2848057e-07
1.5938925e-07
2.3505794e-05
1.2562917e-07
1.5275411e-07
2.3335829e-05
1.2289864e-07
1.4651972e-07
2.3171462e-05
1.2027633e-07
1.4065461e-07
2.3012394e-05
1.1775472e-07
1.3513022e-07
2.2858345e-05
1.1532969e-07
1.2992042e-07
2.2709057e-05
1.1299539e-07
1.2500173e-07
2.2564291e-05
1.1074522e-07
1.2035288e-07
2.2423824e-05
1.0857348e-07
1.1595459e-07
2.2287451e-05
1.0647549e-07
1.1178924e-07
2.2154978e-05
1.04447e-07
1.0784081e-07
2.2026226e-05
1.0248415e-07
1.0409456e-07
2.1901025e-05
1.0058349e-07
1.0053717e-07
2.1779218e-05
9.8741521e-08
9.7156173e-08
2.1660658e-05
9.6954857e-08
9.3940282e-08
2.1545205e-05
9.5221236e-08
9.0879055e-08
2.1432729e-05
9.3538808e-08
8.7962807e-08
2.1323107e-05
9.1905287e-08
8.5182602e-08
2.1216222e-05
9.0318502e-08
8.2530185e-08
2.1111965e-05
8.8776419e-08
7.9997907e-08
2.1010233e-05
8.7277143e-08
7.757865e-08
2.0910927e-05
8.5818976e-08
7.526585e-08
2.0813956e-05
8.4400314e-08
7.3053426e-08
2.0719232e-05
8.3019684e-08
7.0935667e-08
2.0626671e-05
8.1675652e-08
6.8907212e-08
2.0536195e-05
8.0366845e-08
6.696316e-08
2.0447729e-05
7.9091952e-08
6.5098766e-08
2.0361203e-05
7.7849835e-08
6.3309795e-08
2.0276548e-05
7.6639239e-08
6.1592037e-08
2.0193702e-05
7.5458991e-08
5.9941738e-08
2.0112602e-05
7.4307951e-08
5.8355203e-08
2.0033193e-05
7.3184935e-08
5.6829061e-08
1.9955419e-05
7.2088628e-08
5.535996e-08
1.9879228e-05
7.1017643e-08
5.3944822e-08
1.9804572e-05
6.9970403e-08
5.258072e-08
1.9731406e-05
6.894521e-08
5.1264772e-08
1.9659685e-05
6.7940149e-08
4.9994425e-08
1.9589371e-05
6.695303e-08
4.8767055e-08
1.9520423e-05
6.5982325e-08
4.7580526e-08
1.9452807e-05
6.5028029e-08
4.6433084e-08
1.9386482e-05
6.4094095e-08
4.5323722e-08
1.9321404e-05
6.3194653e-08
4.4253072e-08
1.9257511e-05
6.2366344e-08
4.3225221e-08
1.9194705e-05
6.1695156e-08
4.2253142e-08
1.9132798e-05
6.1374058e-08
4.1377406e-08
1.9071394e-05
6.1822422e-08
4.0750675e-08
1.9009424e-05
6.3924746e-08
4.1057601e-08
1.8944661e-05
6.9304702e-08
4.3998824e-08
7.9170935e-08
7.4661554e-08
0.0001054937
1.9169871e-06
6.4880406e-06
0.00010005365
3.2729596e-06
6.5816334e-06
9.4926077e-05
3.8288995e-06
6.1580776e-06
8.9946373e-05
3.9838109e-06
5.9262629e-06
8.5163276e-05
3.9595077e-06
5.6547657e-06
8.0619137e-05
3.7899368e-06
5.3103784e-06
7.6329462e-05
3.5015547e-06
4.9350725e-06
7.230016e-05
3.1412013e-06
4.5559928e-06
6.8534206e-05
2.7514802e-06
4.1846641e-06
6.5032983e-05
2.3633493e-06
3.8278852e-06
6.1795789e-05
1.9984143e-06
3.490711e-06
5.8818843e-05
1.6703759e-06
3.176301e-06
5.6094718e-05
1.3858295e-06
2.886043e-06
5.3612488e-05
1.1457945e-06
2.6200649e-06
5.1358373e-05
9.4764119e-07
2.3777043e-06
4.9316593e-05
7.8676781e-07
2.1578271e-06
4.7470246e-05
6.5779545e-07
1.9590391e-06
4.5802069e-05
5.5532539e-07
1.7798252e-06
4.4295042e-05
4.7437114e-07
1.6186378e-06
4.293283e-05
4.1056667e-07
1.473948e-06
4.1700078e-05
3.6023237e-07
1.3442759e-06
4.0582591e-05
3.2035742e-07
1.2282094e-06
3.956742e-05
2.8853734e-07
1.1244154e-06
3.8642881e-05
2.6289066e-07
1.0316467e-06
3.7798527e-05
2.4196987e-07
9.4874401e-07
3.7025076e-05
2.2467704e-07
8.7465169e-07
3.6314324e-05
2.1018904e-07
8.0840411e-07
3.5659057e-05
1.9788606e-07
7.4911041e-07
3.5052961e-05
1.8731582e-07
6.9597281e-07
3.4490519e-05
1.7814871e-07
6.482738e-07
3.3966922e-05
1.7013172e-07
6.053744e-07
3.3477973e-05
1.6306728e-07
5.6670867e-07
3.3020016e-05
1.5680298e-07
5.3177542e-07
3.2589865e-05
1.5122056e-07
5.0013243e-07
3.218474e-05
1.4622563e-07
4.7139139e-07
3.1802215e-05
1.4174073e-07
4.4521234e-07
3.1440168e-05
1.3770097e-07
4.212981e-07
3.1096739e-05
1.3405097e-07
3.9938923e-07
3.0770297e-05
1.3074294e-07
3.7925954e-07
3.0459402e-05
1.2773517e-07
3.6071197e-07
3.0162787e-05
1.2499094e-07
3.4357482e-07
2.9879325e-05
1.2247784e-07
3.2769853e-07
2.960802e-05
1.2016733e-07
3.1295271e-07
2.934798e-05
1.1803381e-07
2.9922353e-07
2.9098408e-05
1.1605464e-07
2.8641136e-07
2.885859e-05
1.1420983e-07
2.7442904e-07
2.8627882e-05
1.1248193e-07
2.6319999e-07
2.8405701e-05
1.108556e-07
2.5265686e-07
2.819152e-05
1.0931756e-07
2.4274023e-07
2.7984859e-05
1.0785645e-07
2.3339758e-07
2.7785279e-05
1.0646277e-07
2.2458215e-07
2.7592379e-05
1.0512869e-07
2.1625213e-07
2.740579e-05
1.0384731e-07
2.0837034e-07
2.7225174e-05
1.0261114e-07
2.009036e-07
2.705022e-05
1.0140743e-07
1.9382258e-07
2.6880641e-05
1.0023382e-07
1.8710043e-07
2.6716166e-05
9.909235e-08
1.8071221e-07
2.6556546e-05
9.7979993e-08
1.7463556e-07
2.6401548e-05
9.6892538e-08
1.6885014e-07
2.6250957e-05
9.5827123e-08
1.6333744e-07
2.610457e-05
9.4781688e-08
1.5808046e-07
2.5962199e-05
9.3754727e-08
1.5306363e-07
2.5823666e-05
9.2744858e-08
1.4827259e-07
2.5688804e-05
9.1751006e-08
1.4369414e-07
2.5557458e-05
9.0771762e-08
1.3931599e-07
2.5429481e-05
8.980517e-08
1.3512694e-07
2.5304734e-05
8.8851461e-08
1.3111647e-07
2.5183087e-05
8.7911214e-08
1.2727467e-07
2.5064416e-05
8.6983891e-08
1.2359241e-07
2.4948604e-05
8.6068883e-08
1.200612e-07
2.4835542e-05
8.5165789e-08
1.1667302e-07
2.4725124e-05
8.4274324e-08
1.1342044e-07
2.4617252e-05
8.339428e-08
1.1029658e-07
2.4511832e-05
8.2525448e-08
1.0729477e-07
2.4408775e-05
8.1667741e-08
1.0440902e-07
2.4307997e-05
8.0820952e-08
1.0163343e-07
2.4209416e-05
7.9984986e-08
9.8962689e-08
2.4112956e-05
7.9159731e-08
9.6391558e-08
2.4018546e-05
7.8345039e-08
9.3915312e-08
2.3926115e-05
7.7540667e-08
9.1529294e-08
2.3835598e-05
7.674654e-08
8.9229245e-08
2.3746933e-05
7.5962334e-08
8.7011049e-08
2.366006e-05
7.5187648e-08
8.4870733e-08
2.3574922e-05
7.4421972e-08
8.280455e-08
2.3491466e-05
7.3664612e-08
8.08089e-08
2.3409641e-05
7.2914624e-08
7.888037e-08
2.33294e-05
7.2170698e-08
7.7015493e-08
2.3250698e-05
7.1431327e-08
7.5211047e-08
2.3173493e-05
7.0694867e-08
7.3463638e-08
2.3097745e-05
6.9960223e-08
7.1770076e-08
2.3023418e-05
6.9227969e-08
7.0127026e-08
2.2950477e-05
6.8503491e-08
6.8531202e-08
2.2878889e-05
6.7802867e-08
6.6979718e-08
2.2808619e-05
6.7165067e-08
6.5471554e-08
2.2739625e-05
6.6675262e-08
6.4013346e-08
2.267185e-05
6.650707e-08
6.2642323e-08
2.2605149e-05
6.6990743e-08
6.1532417e-08
2.2538888e-05
6.8686035e-08
6.1499881e-08
2.2471121e-05
7.2226966e-08
6.4845105e-08
7.6722847e-08
9.8461333e-08
0.0001051979
1.3340885e-06
6.4961221e-06
9.9496561e-05
2.3731022e-06
6.6011947e-06
9.4262459e-05
2.9019223e-06
6.1610799e-06
8.9251186e-05
3.0856642e-06
5.9094196e-06
8.4493498e-05
3.0947347e-06
5.6224614e-06
8.0033635e-05
2.9846656e-06
5.265134e-06
7.5876907e-05
2.7790155e-06
4.8792667e-06
7.2014635e-05
2.5106844e-06
4.4927895e-06
6.8436293e-05
2.2128728e-06
4.1169489e-06
6.5131387e-05
1.9107259e-06
3.7575291e-06
6.208941e-05
1.621732e-06
3.4186596e-06
5.9299432e-05
1.3573877e-06
3.1029661e-06
5.6749589e-05
1.1240344e-06
2.8116386e-06
5.4426788e-05
9.2377944e-07
2.5448158e-06
5.2316754e-05
7.5572799e-07
2.3019466e-06
5.0404313e-05
6.1717852e-07
2.0820302e-06
4.8673788e-05
5.0454349e-07
1.8837772e-06
4.7109414e-05
4.1397178e-07
1.7057274e-06
4.5695713e-05
3.4173645e-07
1.5463363e-06
4.4417792e-05
2.8445145e-07
1.4040359e-06
4.3261575e-05
2.3917113e-07
1.277278e-06
4.2213953e-05
2.0341506e-07
1.1645652e-06
4.1262871e-05
1.7514743e-07
1.0644719e-06
4.039737e-05
1.5273234e-07
9.7565897e-07
3.9607583e-05
1.3487527e-07
8.9688146e-07
3.8884688e-05
1.2055569e-07
8.270164e-07
3.8220848e-05
1.0901091e-07
7.6501856e-07
3.7609155e-05
9.9633847e-08
7.0994487e-07
3.7043542e-05
9.1977465e-08
6.6095089e-07
3.6518702e-05
8.5705813e-08
6.1728287e-07
3.6030009e-05
8.0552368e-08
5.7827309e-07
3.5573433e-05
7.6308275e-08
5.4333412e-07
3.5145475e-05
7.281124e-08
5.1195027e-07
3.4743091e-05
6.993411e-08
4.8367025e-07
3.4363641e-05
6.7575429e-08
4.5810065e-07
3.4004828e-05
6.5652862e-08
4.3489995e-07
3.3664659e-05
6.4098584e-08
4.1377211e-07
3.3341393e-05
6.2855911e-08
3.9446093e-07
3.3033513e-05
6.1877032e-08
3.7674527e-07
3.2739693e-05
6.1121123e-08
3.6043422e-07
3.2458768e-05
6.0553063e-08
3.4536329e-07
3.2189712e-05
6.0142643e-08
3.3139056e-07
3.1931622e-05
5.986364e-08
3.1839378e-07
3.1683696e-05
5.9693138e-08
3.0626738e-07
3.1445219e-05
5.9611175e-08
2.9492013e-07
3.1215555e-05
5.9600609e-08
2.8427317e-07
3.0994132e-05
5.9646513e-08
2.7425809e-07
3.0780436e-05
5.9736184e-08
2.6481537e-07
3.0574002e-05
5.985868e-08
2.5589334e-07
3.0374407e-05
6.0004926e-08
2.4744662e-07
3.0181267e-05
6.016761e-08
2.3943548e-07
2.9994229e-05
6.034124e-08
2.3182485e-07
2.9812971e-05
6.0521796e-08
2.2458374e-07
2.9637193e-05
6.0704469e-08
2.1768457e-07
2.9466629e-05
6.0867248e-08
2.1110458e-07
2.9301024e-05
6.1016974e-08
2.048218e-07
2.914014e-05
6.116085e-08
1.9881568e-07
2.8983756e-05
6.1294961e-08
1.930684e-07
2.8831669e-05
6.1415492e-08
1.875639e-07
2.8683688e-05
6.152096e-08
1.8228762e-07
2.8539633e-05
6.1610571e-08
1.7722635e-07
2.8399336e-05
6.1683794e-08
1.7236781e-07
2.8262639e-05
6.1740496e-08
1.6770089e-07
2.8129394e-05
6.1780681e-08
1.6321522e-07
2.7999461e-05
6.180386e-08
1.589012e-07
2.7872709e-05
6.1807352e-08
1.5475032e-07
2.7749012e-05
6.1793562e-08
1.5075444e-07
2.7628253e-05
6.1764818e-08
1.4690558e-07
2.7510319e-05
6.1720973e-08
1.4319663e-07
2.7395105e-05
6.1662089e-08
1.3962085e-07
2.728251e-05
6.1588634e-08
1.3617202e-07
2.7172439e-05
6.1501052e-08
1.3284421e-07
2.7064802e-05
6.1399964e-08
1.2963195e-07
2.6959511e-05
6.1285943e-08
1.265299e-07
2.6856486e-05
6.1159556e-08
1.2353326e-07
2.6755649e-05
6.1021323e-08
1.2063729e-07
2.6656924e-05
6.0871854e-08
1.1783767e-07
2.6560242e-05
6.0711715e-08
1.1513016e-07
2.6465535e-05
6.0541378e-08
1.1251077e-07
2.6372738e-05
6.0361304e-08
1.0997576e-07
2.6281792e-05
6.0171923e-08
1.0752158e-07
2.6192636e-05
5.9973532e-08
1.0514469e-07
2.6105215e-05
5.9766321e-08
1.0284181e-07
2.6019477e-05
5.9550269e-08
1.0060972e-07
2.5935371e-05
5.9325153e-08
9.84453e-08
2.585285e-05
5.9090513e-08
9.6345425e-08
2.5771868e-05
5.8845483e-08
9.4306938e-08
2.5692384e-05
5.8588985e-08
9.2326736e-08
2.5614357e-05
5.8319793e-08
9.040142e-08
2.5537753e-05
5.8037081e-08
8.8527313e-08
2.5462539e-05
5.774162e-08
8.67002e-08
2.5388689e-05
5.7438413e-08
8.4915158e-08
2.5316184e-05
5.7141431e-08
8.3166627e-08
2.5245017e-05
5.6882566e-08
8.1449648e-08
2.51752e-05
5.672604e-08
7.9765797e-08
2.510677e-05
5.6787896e-08
7.8149201e-08
2.5039729e-05
5.7251624e-08
7.6780996e-08
2.4973573e-05
5.8330946e-08
7.6510207e-08
2.4906079e-05
5.9989471e-08
7.9732176e-08
6.0714977e-08
1.1287822e-07
0.00010503672
9.0789372e-07
6.5005614e-06
9.9140653e-05
1.6524914e-06
6.6166801e-06
9.3788329e-05
2.0825242e-06
6.1717217e-06
8.8708526e-05
2.2549373e-06
5.91053e-06
8.3909682e-05
2.278404e-06
5.6151748e-06
7.9437109e-05
2.2074821e-06
5.2497564e-06
7.5296201e-05
2.0645348e-06
4.8553893e-06
7.1474034e-05
1.8722543e-06
4.460597e-06
6.7955013e-05
1.6547667e-06
4.0771269e-06
6.4723621e-05
1.4313505e-06
3.7107669e-06
6.1764423e-05
1.2154298e-06
3.3655007e-06
5.9062056e-05
1.015864e-06
3.0438911e-06
5.6601108e-05
8.3782741e-07
2.7471548e-06
5.4365944e-05
6.8344644e-07
2.475497e-06
5.2340648e-05
5.5258524e-07
2.2284383e-06
5.0509125e-05
4.4366544e-07
2.0050361e-06
4.8855299e-05
3.5433454e-07
1.8040352e-06
4.7363353e-05
2.8193591e-07
1.6239821e-06
4.6017963e-05
2.2381344e-07
1.4633127e-06
4.4804503e-05
1.7749383e-07
1.3204181e-06
4.3709199e-05
1.4078089e-07
1.1936935e-06
4.2719248e-05
1.1179155e-07
1.081575e-06
4.1822875e-05
8.8954544e-08
9.8256582e-07
4.1009364e-05
7.0987979e-08
8.9525472e-07
4.0269054e-05
5.6861827e-08
8.1832383e-07
3.9593306e-05
4.5719127e-08
7.5058476e-07
3.8974405e-05
3.6977862e-08
6.9093438e-07
3.8405585e-05
3.0067359e-08
6.383863e-07
3.7880869e-05
2.4650847e-08
5.9204242e-07
3.7395029e-05
2.0439961e-08
5.5110606e-07
3.6943514e-05
1.719028e-08
5.1487714e-07
3.6522366e-05
1.471674e-08
4.8273958e-07
3.6128148e-05
1.2874783e-08
4.5415389e-07
3.5757883e-05
1.1549916e-08
4.2864943e-07
3.5408991e-05
1.0650765e-08
4.0581705e-07
3.5079238e-05
1.0103626e-08
3.8530227e-07
3.4766689e-05
9.8482631e-09
3.6679877e-07
3.4469668e-05
9.8351154e-09
3.5004234e-07
3.4186716e-05
1.0022927e-08
3.3480554e-07
3.3916567e-05
1.0377038e-08
3.2089286e-07
3.3658116e-05
1.0868079e-08
3.081366e-07
3.3410395e-05
1.1470987e-08
2.9639284e-07
3.3172556e-05
1.2164224e-08
2.8553826e-07
3.2943853e-05
1.2929287e-08
2.7546718e-07
3.2723625e-05
1.3750154e-08
2.6608894e-07
3.2511286e-05
1.4613064e-08
2.573257e-07
3.2306316e-05
1.5506218e-08
2.4911068e-07
3.2108246e-05
1.6419578e-08
2.4138621e-07
3.1916658e-05
1.7344634e-08
2.3410269e-07
3.1731171e-05
1.8274289e-08
2.2721712e-07
3.1551444e-05
1.9203129e-08
2.2069216e-07
3.1377162e-05
2.0127694e-08
2.1449508e-07
3.1208038e-05
2.1048653e-08
2.0859679e-07
3.10438e-05
2.1972766e-08
2.0297055e-07
3.0884232e-05
2.2827857e-08
1.976074e-07
3.0729103e-05
2.3662975e-08
1.9248229e-07
3.05782e-05
2.4490031e-08
1.8757383e-07
3.0431331e-05
2.5296291e-08
1.8286763e-07
3.0288318e-05
2.6077971e-08
1.7835077e-07
3.0148994e-05
2.6834292e-08
1.7401108e-07
3.0013202e-05
2.7564694e-08
1.6983755e-07
2.9880797e-05
2.8268974e-08
1.6582025e-07
2.975164e-05
2.8947413e-08
1.6195013e-07
2.9625601e-05
2.960077e-08
1.58219e-07
2.9502557e-05
3.0228572e-08
1.5461921e-07
2.9382396e-05
3.0823577e-08
1.5114463e-07
2.9265007e-05
3.1393126e-08
1.4778877e-07
2.9150287e-05
3.1939563e-08
1.4454537e-07
2.9038137e-05
3.2461878e-08
1.41409e-07
2.8928465e-05
3.2960093e-08
1.383746e-07
2.8821181e-05
3.3434711e-08
1.3543748e-07
2.8716203e-05
3.3886376e-08
1.3259329e-07
2.8613449e-05
3.431555e-08
1.2983788e-07
2.8512845e-05
3.4722864e-08
1.2716736e-07
2.8414317e-05
3.5108974e-08
1.2457812e-07
2.8317797e-05
3.5474458e-08
1.220668e-07
2.8223219e-05
3.5819887e-08
1.196301e-07
2.813052e-05
3.6145892e-08
1.1726493e-07
2.803964e-05
3.6453071e-08
1.1496839e-07
2.7950522e-05
3.674188e-08
1.1273772e-07
2.7863111e-05
3.7012826e-08
1.1057026e-07
2.7777355e-05
3.7266258e-08
1.0846343e-07
2.7693204e-05
3.750247e-08
1.0641475e-07
2.761061e-05
3.7721613e-08
1.0442177e-07
2.752953e-05
3.7923553e-08
1.0248202e-07
2.744992e-05
3.8107974e-08
1.0059307e-07
2.7371738e-05
3.8274276e-08
9.8752295e-08
2.7294949e-05
3.8421533e-08
9.6956898e-08
2.7219516e-05
3.8548716e-08
9.5203634e-08
2.714541e-05
3.8655099e-08
9.3488618e-08
2.7072603e-05
3.8741126e-08
9.1806937e-08
2.7001079e-05
3.8810266e-08
9.0152322e-08
2.6930832e-05
3.8872133e-08
8.8516568e-08
2.6861876e-05
3.8947397e-08
8.6890524e-08
2.679426e-05
3.907353e-08
8.5269168e-08
2.6728065e-05
3.9306986e-08
8.3675952e-08
2.6663337e-05
3.970835e-08
8.2271165e-08
2.659956e-05
4.0272023e-08
8.1836182e-08
2.6534295e-05
4.0698031e-08
8.4555705e-08
3.9620857e-08
1.1507131e-07
0.00010494757
5.6811081e-07
6.5033076e-06
9.8925416e-05
1.0462983e-06
6.6283517e-06
9.3480449e-05
1.3439844e-06
6.1835065e-06
8.8341777e-05
1.4751324e-06
5.9184763e-06
8.3502084e-05
1.4993911e-06
5.6187065e-06
7.9004057e-05
1.4572411e-06
5.2482679e-06
7.4853978e-05
1.3667382e-06
4.8478757e-06
7.1037378e-05
1.2423973e-06
4.4464569e-06
6.7536063e-05
1.0997693e-06
4.0563127e-06
6.4331998e-05
9.5192361e-07
3.683491e-06
6.1407318e-05
8.0805755e-07
3.3320524e-06
5.8744339e-05
6.7422201e-07
3.0046209e-06
5.6325632e-05
5.5404396e-07
2.7024907e-06
5.4133973e-05
4.4916746e-07
2.4259383e-06
5.2152298e-05
3.5972397e-07
2.174536e-06
5.0363747e-05
2.8484511e-07
1.9473718e-06
4.875178e-05
2.2310007e-07
1.7432016e-06
4.7300339e-05
1.7281166e-07
1.5605647e-06
4.5994012e-05
1.3226574e-07
1.3978748e-06
4.4818177e-05
9.9840031e-08
1.2534891e-06
4.3759121e-05
7.4075572e-08
1.1257614e-06
4.2804123e-05
5.3707606e-08
1.0130814e-06
4.1941503e-05
3.7671225e-08
9.1390374e-07
4.1160627e-05
2.5096454e-08
8.2676732e-07
4.0451891e-05
1.5294178e-08
7.503039e-07
3.980679e-05
7.5281516e-09
6.8329176e-07
3.9217543e-05
1.6727283e-09
6.2455202e-07
3.8677513e-05
-3.0331331e-09
5.7313081e-07
3.8180739e-05
-6.6486833e-09
5.2807354e-07
3.7722004e-05
-9.3595047e-09
4.885345e-07
3.7296777e-05
-1.1371804e-08
4.5378927e-07
3.6901112e-05
-1.2818241e-08
4.2319913e-07
3.6531588e-05
-1.3805312e-08
3.962048e-07
3.6185236e-05
-1.4417491e-08
3.7231876e-07
3.5859491e-05
-1.4721903e-08
3.5111777e-07
3.5552132e-05
-1.4772616e-08
3.322358e-07
3.5261237e-05
-1.4613896e-08
3.1535727e-07
3.4985143e-05
-1.4282175e-08
3.0021091e-07
3.472241e-05
-1.3807696e-08
2.8656376e-07
3.4471787e-05
-1.3215863e-08
2.742163e-07
3.4232185e-05
-1.2528178e-08
2.6299768e-07
3.4002657e-05
-1.1762801e-08
2.5276172e-07
3.3782373e-05
-1.0935232e-08
2.4338338e-07
3.3570606e-05
-1.0058772e-08
2.3475558e-07
3.3366714e-05
-9.1447621e-09
2.2678674e-07
3.3170132e-05
-8.2028427e-09
2.1939832e-07
3.2980356e-05
-7.2412367e-09
2.12523e-07
3.279694e-05
-6.2669085e-09
2.0610281e-07
3.2619482e-05
-5.2855683e-09
2.0008782e-07
3.2447623e-05
-4.3018419e-09
1.9443478e-07
3.228104e-05
-3.3190647e-09
1.8910586e-07
3.2119438e-05
-2.3383654e-09
1.8406732e-07
3.1962554e-05
-1.3530708e-09
1.7928648e-07
3.1810075e-05
-2.7632294e-10
1.7472768e-07
3.1661878e-05
5.8584752e-10
1.7043905e-07
3.1517733e-05
1.4356213e-09
1.6637294e-07
3.1377429e-05
2.3038096e-09
1.6248961e-07
3.1240792e-05
3.1586304e-09
1.5877486e-07
3.1107656e-05
3.9969614e-09
1.552172e-07
3.0977867e-05
4.8171525e-09
1.5180547e-07
3.0851284e-05
5.6179801e-09
1.4852968e-07
3.0727774e-05
6.3990476e-09
1.4538077e-07
3.0607209e-05
7.160961e-09
1.4235055e-07
3.0489473e-05
7.9059532e-09
1.3943122e-07
3.037445e-05
8.6357666e-09
1.3661579e-07
3.0262049e-05
9.3206521e-09
1.3390395e-07
3.0152163e-05
9.9938049e-09
1.3128568e-07
3.0044697e-05
1.0650368e-08
1.2875513e-07
2.9939564e-05
1.1286734e-08
1.2630829e-07
2.983668e-05
1.1903197e-08
1.2394085e-07
2.9735965e-05
1.250017e-08
1.2164885e-07
2.9637345e-05
1.3077884e-08
1.1942844e-07
2.9540748e-05
1.363671e-08
1.1727618e-07
2.9446105e-05
1.417704e-08
1.1518883e-07
2.9353352e-05
1.469914e-08
1.1316338e-07
2.9262425e-05
1.5203514e-08
1.1119701e-07
2.9173268e-05
1.5690464e-08
1.0928708e-07
2.9085822e-05
1.6160394e-08
1.0743108e-07
2.9000035e-05
1.661359e-08
1.0562661e-07
2.8915855e-05
1.7050408e-08
1.038715e-07
2.8833233e-05
1.7471111e-08
1.0216361e-07
2.8752123e-05
1.7875981e-08
1.005008e-07
2.8672479e-05
1.8265086e-08
9.8881115e-08
2.8594259e-05
1.8638552e-08
9.7302486e-08
2.8517424e-05
1.8996212e-08
9.5762961e-08
2.8441934e-05
1.9337802e-08
9.4260349e-08
2.8367753e-05
1.9662783e-08
9.2792351e-08
2.8294848e-05
1.997047e-08
9.1356289e-08
2.8223187e-05
2.0259983e-08
8.9948871e-08
2.8152746e-05
2.0530684e-08
8.8565933e-08
2.8083503e-05
2.0782581e-08
8.7201799e-08
2.8015447e-05
2.1017526e-08
8.5848676e-08
2.7948582e-05
2.1240721e-08
8.4495799e-08
2.7882937e-05
2.1462715e-08
8.3129508e-08
2.7818575e-05
2.1699975e-08
8.1736536e-08
2.7755588e-05
2.1969276e-08
8.0324356e-08
2.7694014e-05
2.2266163e-08
7.9016065e-08
2.7633299e-05
2.2506277e-08
7.8480634e-08
2.7571004e-05
2.239343e-08
8.0599456e-08
2.0993068e-08
1.0779943e-07
0.00010489986
2.7443377e-07
6.5049155e-06
9.8802772e-05
5.0716632e-07
6.6362236e-06
9.329591e-05
6.5854976e-07
6.1922972e-06
8.8116302e-05
7.2902544e-07
5.9257148e-06
8.3248198e-05