/*--------------------------------*- C++ -*----------------------------------*\
  =========                 |
  \\      /  F ield         | OpenFOAM: The Open Source CFD Toolbox
   \\    /   O peration     | Website:  https://openfoam.org
    \\  /    A nd           | Version:  7
     \\/     M anipulation  |
\*---------------------------------------------------------------------------*/
FoamFile
{
    version     2.0;
    format      ascii;
    class       volVectorField;
    location    "3150/water";
    object      U;
}
// * * * * * * * * * * * * * * * * * * * * * * * * * * * * * * * * * * * * * //

dimensions      [0 1 -1 0 0 0 0];

internalField   nonuniform List<vector> 
54000
(
(0.0090020934 0.00020305973 0.00020444027)
(0.0083186447 0.00023622738 0.00023904411)
(0.0073695241 0.00021363852 0.00021763527)
(0.0063566114 0.00018488016 0.00018965819)
(0.0054486673 0.00015530836 0.00016048632)
(0.0046741594 0.00012529952 0.00013052937)
(0.0040193038 9.7052611e-05 0.00010203017)
(0.0034740067 7.2578998e-05 7.7073287e-05)
(0.0030302461 5.2876127e-05 5.6738328e-05)
(0.0026757323 3.8068151e-05 4.1216513e-05)
(0.0023947254 2.7637704e-05 3.003714e-05)
(0.0021713898 2.0689033e-05 2.2336508e-05)
(0.0019919695 1.623616e-05 1.7152703e-05)
(0.0018455015 1.3416236e-05 1.3643172e-05)
(0.0017237326 1.1582488e-05 1.1179122e-05)
(0.0016206928 1.0304891e-05 9.3455813e-06)
(0.0015321593 9.32579e-06 7.8957157e-06)
(0.0014551546 8.5052958e-06 6.6953108e-06)
(0.0013875459 7.7746332e-06 5.676058e-06)
(0.0013277612 7.1034279e-06 4.8034859e-06)
(0.001274601 6.4798502e-06 4.0581569e-06)
(0.0012271179 5.8999455e-06 3.426157e-06)
(0.0011845424 5.3625301e-06 2.8950706e-06)
(0.001146235 4.8670204e-06 2.4526291e-06)
(0.0011116558 4.4125992e-06 2.0869772e-06)
(0.0010803434 3.9980132e-06 1.7867462e-06)
(0.0010519002 3.6214604e-06 1.5416128e-06)
(0.0010259819 3.2805938e-06 1.3421857e-06)
(0.001002289 2.9733951e-06 1.17973e-06)
(0.00098056199 2.6979494e-06 1.0463198e-06)
(0.00096057571 2.4519209e-06 9.3658869e-07)
(0.00094213242 2.2325668e-06 8.4693348e-07)
(0.00092505792 2.0373865e-06 7.7316617e-07)
(0.00090920047 1.864089e-06 7.1184217e-07)
(0.00089442818 1.7104627e-06 6.604673e-07)
(0.0008806259 1.5743826e-06 6.1707367e-07)
(0.00086769294 1.4538613e-06 5.8005317e-07)
(0.00085554128 1.3470707e-06 5.4811397e-07)
(0.00084409387 1.2523499e-06 5.2023904e-07)
(0.00083328322 1.1681979e-06 4.9562687e-07)
(0.00082305015 1.0932612e-06 4.7365258e-07)
(0.00081334267 1.0262288e-06 4.5378267e-07)
(0.00080411486 9.6585867e-07 4.3554469e-07)
(0.00079532615 9.1131106e-07 4.186512e-07)
(0.0007869407 8.6191697e-07 4.0290703e-07)
(0.00077892675 8.1708292e-07 3.8816905e-07)
(0.00077125603 7.7627673e-07 3.7432145e-07)
(0.0007639033 7.3902617e-07 3.6127562e-07)
(0.00075684597 7.0491374e-07 3.4896372e-07)
(0.00075006373 6.7357506e-07 3.3733157e-07)
(0.00074353821 6.4469429e-07 3.2633752e-07)
(0.00073725294 6.1802621e-07 3.1581842e-07)
(0.00073119314 5.9334689e-07 3.0574372e-07)
(0.00072534528 5.704189e-07 2.9621158e-07)
(0.00071969687 5.4902408e-07 2.8716619e-07)
(0.00071423652 5.2901431e-07 2.7854324e-07)
(0.00070895385 5.1027324e-07 2.7031161e-07)
(0.00070383928 4.9268659e-07 2.6244804e-07)
(0.00069888397 4.7614495e-07 2.5493251e-07)
(0.00069407976 4.6054971e-07 2.4774292e-07)
(0.00068941911 4.4582006e-07 2.408642e-07)
(0.00068489502 4.318849e-07 2.3427691e-07)
(0.00068050097 4.1867944e-07 2.2796339e-07)
(0.00067623091 4.0614622e-07 2.2191124e-07)
(0.00067207915 3.9423496e-07 2.1610563e-07)
(0.00066804042 3.8289677e-07 2.105312e-07)
(0.00066410976 3.720948e-07 2.0517803e-07)
(0.00066028251 3.6179433e-07 2.0003196e-07)
(0.00065655429 3.5196225e-07 1.9508311e-07)
(0.00065292099 3.425693e-07 1.9031827e-07)
(0.00064937872 3.3358659e-07 1.8572926e-07)
(0.00064592383 3.2498824e-07 1.8130493e-07)
(0.00064255288 3.1675177e-07 1.770404e-07)
(0.00063926261 3.0885632e-07 1.7292476e-07)
(0.00063604992 3.0128366e-07 1.6895102e-07)
(0.00063291192 2.9401275e-07 1.651104e-07)
(0.00062984583 2.8703087e-07 1.6139725e-07)
(0.00062684904 2.803215e-07 1.5780274e-07)
(0.00062391907 2.7387134e-07 1.5432032e-07)
(0.00062105358 2.6766588e-07 1.5094257e-07)
(0.00061825035 2.6169385e-07 1.4766074e-07)
(0.00061550727 2.5594511e-07 1.4446937e-07)
(0.00061282235 2.5040601e-07 1.4135982e-07)
(0.00061019373 2.450686e-07 1.3832387e-07)
(0.00060761964 2.3991991e-07 1.3535592e-07)
(0.00060509845 2.3494587e-07 1.3244858e-07)
(0.00060262862 2.3013495e-07 1.2959777e-07)
(0.00060020873 2.2546907e-07 1.2680436e-07)
(0.00059783744 2.2093203e-07 1.2407516e-07)
(0.00059551348 2.1649832e-07 1.2143341e-07)
(0.00059323554 2.1214899e-07 1.1892882e-07)
(0.00059100214 2.0787243e-07 1.1666262e-07)
(0.00058881114 2.0369067e-07 1.1483047e-07)
(0.00058665898 1.9973206e-07 1.1382024e-07)
(0.00058453869 1.9638467e-07 1.1441059e-07)
(0.00058243501 1.9487229e-07 1.183744e-07)
(0.00058031396 1.9977445e-07 1.3094457e-07)
(0.0005781161 2.2258506e-07 1.6397669e-07)
(0.00057566369 1.9706848e-07 1.5080586e-07)
(0.000569062 7.8896364e-07 7.5322668e-07)
(0.0095316863 0.0003313754 0.00022336697)
(0.0092716504 0.00041105942 0.00027052342)
(0.0087756651 0.00040317187 0.00026060062)
(0.0081527518 0.00038218754 0.00024252081)
(0.0075302151 0.00035309574 0.00022101124)
(0.0069425889 0.00031541062 0.00019648834)
(0.006391209 0.00027309198 0.00017102969)
(0.0058791845 0.00023030694 0.00014652546)
(0.0054120202 0.00019001855 0.00012410997)
(0.0049926512 0.00015423459 0.00010436627)
(0.004620592 0.00012408347 8.7479017e-05)
(0.0042931332 9.9809401e-05 7.3327495e-05)
(0.0040063965 8.0956422e-05 6.1601504e-05)
(0.0037559538 6.667221e-05 5.1918795e-05)
(0.0035372541 5.59858e-05 4.3907445e-05)
(0.003345947 4.7992056e-05 3.7246646e-05)
(0.0031780884 4.1941708e-05 3.1677529e-05)
(0.0030302311 3.7262445e-05 2.699792e-05)
(0.0028994324 3.3540996e-05 2.3051137e-05)
(0.0027832152 3.0490243e-05 1.9714593e-05)
(0.0026795075 2.7915735e-05 1.6890543e-05)
(0.0025865783 2.5687842e-05 1.4499382e-05)
(0.002502978 2.3720893e-05 1.2475015e-05)
(0.0024274871 2.1958429e-05 1.0761725e-05)
(0.0023590736 2.0362992e-05 9.3122326e-06)
(0.0022968589 1.8909454e-05 8.0861291e-06)
(0.0022400906 1.7580768e-05 7.048962e-06)
(0.0021881216 1.6364899e-05 6.1714973e-06)
(0.0021403932 1.5251963e-05 5.4283132e-06)
(0.0020964214 1.423385e-05 4.7973497e-06)
(0.0020557868 1.330304e-05 4.2604813e-06)
(0.0020181236 1.2451986e-05 3.8027033e-06)
(0.0019831119 1.1673908e-05 3.4109598e-06)
(0.0019504718 1.0962755e-05 3.0744194e-06)
(0.0019199589 1.0312855e-05 2.7842608e-06)
(0.0018913593 9.7188348e-06 2.5331798e-06)
(0.0018644851 9.175645e-06 2.3150744e-06)
(0.0018391716 8.6785725e-06 2.1248314e-06)
(0.0018152735 8.223243e-06 1.9581837e-06)
(0.0017926629 7.8056207e-06 1.8115675e-06)
(0.0017712268 7.4219972e-06 1.6820111e-06)
(0.001750865 7.0689361e-06 1.5670704e-06)
(0.0017314886 6.7432686e-06 1.4647427e-06)
(0.0017130186 6.4422727e-06 1.3732751e-06)
(0.0016953848 6.1635573e-06 1.2911589e-06)
(0.0016785241 5.9049772e-06 1.2171209e-06)
(0.00166238 5.6646095e-06 1.1500833e-06)
(0.0016469019 5.4407256e-06 1.0891485e-06)
(0.001632044 5.2317772e-06 1.0335534e-06)
(0.0016177648 5.0363843e-06 9.8265443e-07)
(0.0016040271 4.8533228e-06 9.358943e-07)
(0.0015907965 4.6815628e-06 8.9273701e-07)
(0.0015780424 4.5201546e-06 8.5278631e-07)
(0.0015657364 4.368153e-06 8.1576972e-07)
(0.0015538526 4.2246805e-06 7.8138513e-07)
(0.0015423672 4.0890594e-06 7.4934521e-07)
(0.0015312583 3.9607281e-06 7.1941231e-07)
(0.0015205058 3.8391518e-06 6.9138722e-07)
(0.0015100909 3.7238128e-06 6.6509477e-07)
(0.0014999963 3.6142423e-06 6.4037961e-07)
(0.0014902061 3.5100289e-06 6.1710873e-07)
(0.0014807053 3.4107985e-06 5.9516041e-07)
(0.00147148 3.3162116e-06 5.7442897e-07)
(0.0014625175 3.2259587e-06 5.5481525e-07)
(0.0014538055 3.1397551e-06 5.3623561e-07)
(0.0014453328 3.0573349e-06 5.186122e-07)
(0.0014370889 2.9784702e-06 5.0187789e-07)
(0.0014290637 2.9029585e-06 4.8596709e-07)
(0.001421248 2.8306022e-06 4.7082388e-07)
(0.001413633 2.7612183e-06 4.5639296e-07)
(0.0014062103 2.6946337e-06 4.426279e-07)
(0.0013989723 2.6306909e-06 4.2948679e-07)
(0.0013919116 2.5692451e-06 4.1693127e-07)
(0.0013850211 2.5101626e-06 4.0492071e-07)
(0.0013782945 2.4533198e-06 3.9342464e-07)
(0.0013717253 2.3985952e-06 3.8241069e-07)
(0.0013653078 2.345884e-06 3.7185176e-07)
(0.0013590364 2.2950864e-06 3.6171801e-07)
(0.0013529058 2.2461059e-06 3.5198307e-07)
(0.001346911 2.1988512e-06 3.4262614e-07)
(0.0013410472 2.1532408e-06 3.3362046e-07)
(0.0013353099 2.1091953e-06 3.2494533e-07)
(0.001329695 2.0666357e-06 3.1657892e-07)
(0.0013241983 2.0254874e-06 3.0850087e-07)
(0.001318816 1.9856733e-06 3.006898e-07)
(0.0013135446 1.9471138e-06 2.9313105e-07)
(0.0013083808 1.9097265e-06 2.8580601e-07)
(0.0013033213 1.8734227e-06 2.7870211e-07)
(0.0012983632 1.8381148e-06 2.7181603e-07)
(0.0012935038 1.8037142e-06 2.6515411e-07)
(0.0012887402 1.7701702e-06 2.5874315e-07)
(0.0012840698 1.7375331e-06 2.5265017e-07)
(0.0012794889 1.706121e-06 2.4701305e-07)
(0.0012749925 1.6769098e-06 2.4211315e-07)
(0.001270572 1.6524675e-06 2.3851852e-07)
(0.0012662098 1.6393326e-06 2.3766032e-07)
(0.0012618709 1.6545759e-06 2.4458398e-07)
(0.0012574959 1.7463724e-06 2.7712449e-07)
(0.0012529717 2.0376702e-06 2.6526335e-07)
(0.0012433358 2.9514819e-06 1.3525331e-06)
(0.0095221617 0.00021179965 0.00022180582)
(0.009269783 0.00029872516 0.00026628967)
(0.0088657772 0.00031669844 0.00025526743)
(0.0083755729 0.000317438 0.00023864265)
(0.0078888426 0.00030841043 0.00021987851)
(0.0074276349 0.00028848207 0.00019850458)
(0.006988258 0.00026048391 0.00017617916)
(0.0065698164 0.00022855168 0.00015444521)
(0.0061756011 0.00019596771 0.00013413534)
(0.0058087146 0.00016504408 0.00011567593)
(0.0054706295 0.00013728621 9.9270838e-05)
(0.0051615551 0.00011345265 8.4947831e-05)
(0.0048808654 9.3684506e-05 7.2600738e-05)
(0.0046272998 7.7712987e-05 6.2044901e-05)
(0.0043991196 6.5057025e-05 5.3064542e-05)
(0.0041942886 5.5163888e-05 4.544363e-05)
(0.0040106431 4.7493346e-05 3.8982753e-05)
(0.0038460219 4.1561376e-05 3.350638e-05)
(0.0036983537 3.6958193e-05 2.8864074e-05)
(0.0035657105 3.3351174e-05 2.4928487e-05)
(0.0034463343 3.0479503e-05 2.1592135e-05)
(0.003338646 2.8144768e-05 1.8764098e-05)
(0.003241243 2.6200155e-05 1.6367139e-05)
(0.0031528887 2.4539751e-05 1.4335369e-05)
(0.0030724986 2.3088866e-05 1.261249e-05)
(0.0029991252 2.1796112e-05 1.1150135e-05)
(0.0029319421 2.0626904e-05 9.9064816e-06)
(0.0028702292 1.9558163e-05 8.8458153e-06)
(0.0028133589 1.8574038e-05 7.9385374e-06)
(0.0027607855 1.7663623e-05 7.1598229e-06)
(0.0027120345 1.6818833e-05 6.4890355e-06)
(0.0026666927 1.6033067e-05 5.9090207e-06)
(0.0026243991 1.5301095e-05 5.4052727e-06)
(0.0025848382 1.461882e-05 4.965653e-06)
(0.0025477347 1.3982715e-05 4.5801155e-06)
(0.0025128472 1.3389546e-05 4.2403262e-06)
(0.002479964 1.2836282e-05 3.9393554e-06)
(0.0024488994 1.232006e-05 3.671426e-06)
(0.0024194896 1.1838146e-05 3.4317262e-06)
(0.00239159 1.1387941e-05 3.2162511e-06)
(0.0023650729 1.0966985e-05 3.0216611e-06)
(0.0023398248 1.0572999e-05 2.8451736e-06)
(0.0023157449 1.0203874e-05 2.6844745e-06)
(0.0022927433 9.8575798e-06 2.5375945e-06)
(0.0022707398 9.5322163e-06 2.4028639e-06)
(0.002249662 9.2260288e-06 2.2788681e-06)
(0.0022294453 8.9374186e-06 2.1644003e-06)
(0.0022100312 8.6649292e-06 2.0584371e-06)
(0.0021913666 8.4072392e-06 1.9601012e-06)
(0.0021734038 8.1631554e-06 1.8686323e-06)
(0.0021560989 7.9316212e-06 1.7833679e-06)
(0.0021394122 7.7117229e-06 1.7037083e-06)
(0.0021233074 7.5025997e-06 1.6291516e-06)
(0.0021077512 7.3033782e-06 1.5592822e-06)
(0.0020927129 7.113186e-06 1.49372e-06)
(0.0020781645 6.931415e-06 1.4321038e-06)
(0.0020640799 6.7576058e-06 1.3741138e-06)
(0.0020504351 6.5912622e-06 1.3194614e-06)
(0.0020372075 6.4318797e-06 1.2678952e-06)
(0.0020243766 6.2790054e-06 1.2191865e-06)
(0.0020119231 6.1322412e-06 1.173132e-06)
(0.001999829 5.9912199e-06 1.1295431e-06)
(0.0019880776 5.8556108e-06 1.0882497e-06)
(0.0019766531 5.7251036e-06 1.0490952e-06)
(0.0019655411 5.5994084e-06 1.011938e-06)
(0.0019547276 5.4782453e-06 9.7664614e-07)
(0.0019441999 5.3613889e-06 9.4310017e-07)
(0.0019339458 5.2486484e-06 9.1118929e-07)
(0.0019239539 5.1398189e-06 8.8080765e-07)
(0.0019142135 5.0347029e-06 8.5186011e-07)
(0.0019047144 4.9331183e-06 8.2425918e-07)
(0.001895447 4.8348987e-06 7.9792405e-07)
(0.0018864023 4.7398891e-06 7.7278021e-07)
(0.0018775718 4.6479426e-06 7.4875659e-07)
(0.0018689473 4.5589229e-06 7.2578764e-07)
(0.0018605211 4.4727003e-06 7.0381411e-07)
(0.0018522861 4.3891524e-06 6.8277839e-07)
(0.0018442353 4.3081693e-06 6.6262536e-07)
(0.0018363621 4.2296386e-06 6.4330675e-07)
(0.0018286604 4.1534581e-06 6.2477745e-07)
(0.0018211241 4.0795285e-06 6.0698891e-07)
(0.0018137478 4.007753e-06 5.8990084e-07)
(0.0018065261 3.9380358e-06 5.7347312e-07)
(0.001799454 3.8702792e-06 5.576671e-07)
(0.0017925266 3.804382e-06 5.4244741e-07)
(0.0017857396 3.7402368e-06 5.277787e-07)
(0.0017790885 3.6777262e-06 5.1362925e-07)
(0.0017725695 3.6167255e-06 4.9996901e-07)
(0.0017661787 3.5571059e-06 4.8677512e-07)
(0.0017599128 3.4987612e-06 4.7402525e-07)
(0.0017537682 3.4416546e-06 4.6171007e-07)
(0.0017477416 3.385964e-06 4.498354e-07)
(0.0017418294 3.3323812e-06 4.3844339e-07)
(0.0017360272 3.2827914e-06 4.276466e-07)
(0.001730328 3.241777e-06 4.1776793e-07)
(0.0017247202 3.2200414e-06 4.0999178e-07)
(0.001719183 3.2421555e-06 4.0985023e-07)
(0.001713691 3.3643449e-06 4.4114452e-07)
(0.0017081999 3.7072188e-06 4.7353437e-07)
(0.0016974804 4.4611199e-06 1.8634989e-06)
(0.0095012861 0.00013951169 0.00022248511)
(0.0092133349 0.00022408324 0.00026709763)
(0.0088018509 0.0002570094 0.00025529581)
(0.0083306071 0.00026690691 0.0002382081)
(0.0078754299 0.00026502159 0.00021939837)
(0.0074527063 0.0002529565 0.00019823245)
(0.0070564396 0.00023295893 0.00017634609)
(0.0066827538 0.00020836345 0.0001552305)
(0.006331873 0.00018203353 0.00013558338)
(0.0060047052 0.00015603739 0.00011769036)
(0.0057015056 0.00013180401 0.00010166909)
(0.0054220192 0.00011020725 8.7524314e-05)
(0.0051656909 9.1631899e-05 7.5171986e-05)
(0.0049316845 7.6091185e-05 6.4472618e-05)
(0.0047188814 6.3363142e-05 5.5261149e-05)
(0.0045259349 5.3104942e-05 4.7366821e-05)
(0.0043513547 4.4932757e-05 4.0624899e-05)
(0.0041935865 3.847136e-05 3.4883032e-05)
(0.0040510752 3.3381244e-05 3.0003995e-05)
(0.0039223115 2.9370508e-05 2.5866181e-05)
(0.0038058643 2.6197263e-05 2.2362867e-05)
(0.0037004012 2.366673e-05 1.9400962e-05)
(0.0036047 2.1625757e-05 1.6899611e-05)
(0.0035176529 1.9956326e-05 1.4788824e-05)
(0.0034382652 1.8569047e-05 1.3008105e-05)
(0.0033656513 1.7397361e-05 1.1504745e-05)
(0.0032990266 1.6392003e-05 1.0233523e-05)
(0.0032376995 1.5516241e-05 9.1565334e-06)
(0.0031810636 1.4743888e-05 8.2421105e-06)
(0.0031285885 1.4056152e-05 7.4635746e-06)
(0.0030798115 1.3438895e-05 6.7985202e-06)
(0.0030343294 1.2881152e-05 6.2282219e-06)
(0.0029917905 1.2374496e-05 5.7369833e-06)
(0.0029518882 1.1912421e-05 5.3116675e-06)
(0.0029143553 1.1489693e-05 4.9413538e-06)
(0.0028789586 1.110193e-05 4.6170003e-06)
(0.0028454946 1.0745381e-05 4.3311222e-06)
(0.0028137847 1.0416776e-05 4.0775278e-06)
(0.0027836727 1.011322e-05 3.8511078e-06)
(0.0027550209 9.8321226e-06 3.6476454e-06)
(0.0027277081 9.5711599e-06 3.4636655e-06)
(0.002701627 9.3282496e-06 3.2963003e-06)
(0.0026766823 9.1015157e-06 3.1431912e-06)
(0.0026527895 8.8892433e-06 3.0023827e-06)
(0.0026298729 8.6898923e-06 2.8722565e-06)
(0.0026078648 8.50209e-06 2.7514715e-06)
(0.002586704 8.3246171e-06 2.6389102e-06)
(0.0025663358 8.1563958e-06 2.5336419e-06)
(0.0025467102 7.9964779e-06 2.4348844e-06)
(0.002527782 7.8440281e-06 2.3419779e-06)
(0.0025095101 7.6983372e-06 2.254361e-06)
(0.0024918566 7.5588091e-06 2.171544e-06)
(0.0024747871 7.4248983e-06 2.0931119e-06)
(0.0024582699 7.2960208e-06 2.0187189e-06)
(0.0024422756 7.1714383e-06 1.9480695e-06)
(0.0024267775 7.0509278e-06 1.8808999e-06)
(0.0024117506 6.9343773e-06 1.8169532e-06)
(0.0023971715 6.8214907e-06 1.7560019e-06)
(0.0023830185 6.711957e-06 1.6978522e-06)
(0.0023692714 6.6055386e-06 1.6423278e-06)
(0.0023559116 6.5020448e-06 1.5892719e-06)
(0.0023429214 6.4013081e-06 1.5385393e-06)
(0.0023302844 6.3031796e-06 1.4899943e-06)
(0.0023179851 6.2075233e-06 1.4435158e-06)
(0.0023060089 6.114204e-06 1.3989938e-06)
(0.0022943424 6.0230688e-06 1.3563255e-06)
(0.0022829727 5.9340578e-06 1.315416e-06)
(0.0022718877 5.8471286e-06 1.2761697e-06)
(0.002261076 5.7622042e-06 1.2385023e-06)
(0.0022505267 5.6791985e-06 1.202331e-06)
(0.0022402296 5.598041e-06 1.1675826e-06)
(0.0022301752 5.5186708e-06 1.134189e-06)
(0.0022203542 5.4410291e-06 1.102081e-06)
(0.002210758 5.3650618e-06 1.071199e-06)
(0.0022013784 5.2907174e-06 1.0414839e-06)
(0.0021922076 5.217948e-06 1.0128815e-06)
(0.0021832381 5.1467086e-06 9.8533808e-07)
(0.0021744628 5.0769572e-06 9.5880284e-07)
(0.0021658752 5.0086489e-06 9.3323036e-07)
(0.0021574688 4.9417434e-06 9.0857468e-07)
(0.0021492375 4.8761987e-06 8.8479153e-07)
(0.0021411756 4.8119673e-06 8.6183946e-07)
(0.0021332776 4.7489987e-06 8.3967859e-07)
(0.0021255383 4.687239e-06 8.1827063e-07)
(0.0021179527 4.6266215e-06 7.9757733e-07)
(0.0021105161 4.5670667e-06 7.7756106e-07)
(0.0021032242 4.5084801e-06 7.5818422e-07)
(0.0020960727 4.4507544e-06 7.3941064e-07)
(0.0020890577 4.3937745e-06 7.2120317e-07)
(0.0020821756 4.3374553e-06 7.0352041e-07)
(0.002075423 4.2818111e-06 6.8632115e-07)
(0.0020687967 4.2271341e-06 6.6956106e-07)
(0.0020622937 4.174354e-06 6.5320364e-07)
(0.002055911 4.1258145e-06 6.3726236e-07)
(0.0020496453 4.0868287e-06 6.219858e-07)
(0.0020434926 4.0687768e-06 6.0874875e-07)
(0.0020374483 4.0948775e-06 6.0452206e-07)
(0.0020315149 4.2094252e-06 6.3987732e-07)
(0.0020256647 4.479748e-06 7.1688444e-07)
(0.0020144539 4.9057752e-06 2.2695248e-06)
(0.0094902877 9.6726608e-05 0.00022289229)
(0.00917661 0.00016632333 0.00026788105)
(0.0087449456 0.00019969046 0.00025550648)
(0.0082664657 0.00021101604 0.00023762681)
(0.00781215 0.0002109939 0.0002181603)
(0.0073950862 0.0002028236 0.00019646328)
(0.0070087986 0.00018827265 0.00017418493)
(0.006648835 0.00016968865 0.0001528463)
(0.0063142174 0.00014929331 0.00013312182)
(0.0060045996 0.00012875288 0.0001152379)
(0.0057192201 0.00010923292 9.9256791e-05)
(0.0054570682 9.1490071e-05 8.514891e-05)
(0.0052170782 7.59234e-05 7.2816212e-05)
(0.0049981259 6.264333e-05 6.2119134e-05)
(0.0047989841 5.1561152e-05 5.2900048e-05)
(0.0046183234 4.2472279e-05 4.4997976e-05)
(0.0044547458 3.5118726e-05 3.8256897e-05)
(0.0043068267 2.9230543e-05 3.2530442e-05)
(0.0041731526 2.4550833e-05 2.768434e-05)
(0.0040523509 2.084911e-05 2.3597362e-05)
(0.0039431142 1.7926911e-05 2.0161345e-05)
(0.0038442168 1.5618598e-05 1.7280682e-05)
(0.0037545253 1.3789364e-05 1.4871531e-05)
(0.0036730042 1.2331758e-05 1.2860863e-05)
(0.0035987172 1.1161538e-05 1.1185212e-05)
(0.0035308246 1.0213366e-05 9.7889744e-06)
(0.0034685786 9.4380827e-06 8.625072e-06)
(0.0034113173 8.7971273e-06 7.6543152e-06)
(0.0033584589 8.2627213e-06 6.8439389e-06)
(0.0033094933 7.8140814e-06 6.1664547e-06)
(0.0032639753 7.4348245e-06 5.5988446e-06)
(0.0032215172 7.1121312e-06 5.1219266e-06)
(0.0031817817 6.8360961e-06 4.7197272e-06)
(0.0031444758 6.599021e-06 4.3789736e-06)
(0.0031093448 6.3947816e-06 4.0886805e-06)
(0.0030761678 6.2184057e-06 3.8397975e-06)
(0.0030447526 6.0657975e-06 3.624878e-06)
(0.003014932 5.933529e-06 3.4378174e-06)
(0.0029865602 5.8186977e-06 3.2736177e-06)
(0.0029595097 5.7188198e-06 3.1282049e-06)
(0.002933669 5.6317503e-06 2.9982619e-06)
(0.0029089401 5.5556269e-06 2.8810971e-06)
(0.0028852364 5.4888238e-06 2.7745347e-06)
(0.0028624815 5.4299126e-06 2.6768103e-06)
(0.0028406075 5.3776431e-06 2.5865054e-06)
(0.0028195538 5.330924e-06 2.5024725e-06)
(0.0027992664 5.2888095e-06 2.4237889e-06)
(0.0027796963 5.2504818e-06 2.3497104e-06)
(0.0027607998 5.2152429e-06 2.2796371e-06)
(0.002742537 5.1824983e-06 2.2130843e-06)
(0.0027248717 5.151767e-06 2.1496547e-06)
(0.0027077708 5.1226672e-06 2.0890223e-06)
(0.002691204 5.0948957e-06 2.0309194e-06)
(0.0026751435 5.0680866e-06 1.9751358e-06)
(0.0026595636 5.0410654e-06 1.9215397e-06)
(0.0026444411 5.0142593e-06 1.8699671e-06)
(0.002629754 4.9880182e-06 1.8202523e-06)
(0.0026154815 4.9620734e-06 1.7722786e-06)
(0.0026016045 4.936142e-06 1.7259604e-06)
(0.0025881054 4.9100856e-06 1.681214e-06)
(0.0025749674 4.8838318e-06 1.6379657e-06)
(0.002562175 4.8573392e-06 1.5961455e-06)
(0.0025497136 4.8305797e-06 1.5556931e-06)
(0.0025375693 4.803538e-06 1.5165487e-06)
(0.0025257292 4.7761761e-06 1.4786611e-06)
(0.002514181 4.7483848e-06 1.4419859e-06)
(0.0025029134 4.7202754e-06 1.4064835e-06)
(0.0024919153 4.691914e-06 1.3721022e-06)
(0.0024811765 4.6632892e-06 1.3387971e-06)
(0.002470687 4.6344008e-06 1.3065287e-06)
(0.0024604377 4.6052667e-06 1.2752602e-06)
(0.0024504197 4.5759082e-06 1.2449547e-06)
(0.0024406247 4.5463453e-06 1.2155772e-06)
(0.0024310448 4.5166014e-06 1.1870933e-06)
(0.0024216723 4.4866965e-06 1.1594726e-06)
(0.0024125001 4.4566501e-06 1.1326837e-06)
(0.0024035213 4.4264882e-06 1.1066973e-06)
(0.0023947295 4.396228e-06 1.0814822e-06)
(0.0023861184 4.3658885e-06 1.0570122e-06)
(0.0023776821 4.3354855e-06 1.0332592e-06)
(0.0023694149 4.3050342e-06 1.0101965e-06)
(0.0023613115 4.2745366e-06 9.8779476e-07)
(0.0023533667 4.2439936e-06 9.660305e-07)
(0.0023455757 4.2133957e-06 9.4487383e-07)
(0.0023379338 4.1827199e-06 9.2429904e-07)
(0.0023304365 4.1519252e-06 9.0427655e-07)
(0.0023230798 4.1209528e-06 8.8477268e-07)
(0.0023158598 4.0897251e-06 8.6575243e-07)
(0.0023087726 4.0581565e-06 8.4717283e-07)
(0.002301815 4.0261918e-06 8.2898053e-07)
(0.0022949838 3.993876e-06 8.1110714e-07)
(0.0022882766 3.9615306e-06 7.9346291e-07)
(0.002281691 3.9300783e-06 7.7594398e-07)
(0.0022752261 3.9016909e-06 7.5847832e-07)
(0.002268882 3.8809394e-06 7.4124643e-07)
(0.0022626608 3.8766473e-06 7.2572752e-07)
(0.0022565686 3.9043053e-06 7.1958016e-07)
(0.0022506189 3.9866545e-06 7.5579902e-07)
(0.0022447715 4.1390992e-06 8.4931757e-07)
(0.002233564 4.2832236e-06 2.4122112e-06)
(0.0094843561 6.6886586e-05 0.00022303624)
(0.0091549219 0.00011904886 0.00026838771)
(0.0087072816 0.00014772497 0.00025588053)
(0.0082191888 0.00015892953 0.00023765677)
(0.0077602858 0.00016026049 0.00021787143)
(0.0073412804 0.00015505102 0.00019586613)
(0.0069552494 0.00014481701 0.00017327438)
(0.0065978366 0.00013121474 0.00015165024)
(0.0062677954 0.00011592881 0.00013169211)
(0.0059642872 0.00010028521 0.0001136244)
(0.0056860598 8.521443e-05 9.7497522e-05)
(0.0054316726 7.1330407e-05 8.3272196e-05)
(0.0051997008 5.8984298e-05 7.0844884e-05)
(0.0049887459 4.8311754e-05 6.0073373e-05)
(0.0047973943 3.9291583e-05 5.079889e-05)
(0.0046242055 3.1804356e-05 4.2859901e-05)
(0.0044677269 2.5679087e-05 3.6099807e-05)
(0.0043265179 2.0725785e-05 3.0371291e-05)
(0.0041991724 1.6756344e-05 2.5538702e-05)
(0.004084339 1.3596837e-05 2.1479082e-05)
(0.0039807371 1.1093752e-05 1.8082323e-05)
(0.0038871692 9.116162e-06 1.525079e-05)
(0.0038025288 7.5553791e-06 1.2898646e-05)
(0.003725804 6.3231342e-06 1.0950987e-05)
(0.0036560786 5.3488174e-06 9.3426786e-06)
(0.0035925304 4.5751813e-06 8.0166138e-06)
(0.0035344253 3.9621e-06 6.9239486e-06)
(0.0034811131 3.4726271e-06 6.0250729e-06)
(0.0034320221 3.0815191e-06 5.2862631e-06)
(0.0033866501 2.770276e-06 4.6792107e-06)
(0.0033445586 2.5236743e-06 4.180521e-06)
(0.0033053662 2.3295861e-06 3.7707524e-06)
(0.0032687419 2.1784964e-06 3.4337451e-06)
(0.0032343982 2.062906e-06 3.1561106e-06)
(0.0032020863 1.9768094e-06 2.9267966e-06)
(0.0031715907 1.915317e-06 2.7367035e-06)
(0.0031427248 1.8743796e-06 2.5783551e-06)
(0.0031153267 1.850606e-06 2.4456293e-06)
(0.0030892563 1.8411247e-06 2.3335226e-06)
(0.0030643915 1.8434991e-06 2.2379678e-06)
(0.003040626 1.8556449e-06 2.1556637e-06)
(0.0030178671 1.8757806e-06 2.0839522e-06)
(0.0029960335 1.9023803e-06 2.0206937e-06)
(0.0029750538 1.9341331e-06 1.964182e-06)
(0.0029548648 1.9699147e-06 1.9130528e-06)
(0.0029354109 2.0087629e-06 1.8662262e-06)
(0.0029166424 2.0498584e-06 1.822852e-06)
(0.0028985148 2.09251e-06 1.7822576e-06)
(0.0028809885 2.1361375e-06 1.7439142e-06)
(0.0028640277 2.1802702e-06 1.7074098e-06)
(0.0028475999 2.2245512e-06 1.6724141e-06)
(0.0028316758 2.2687597e-06 1.6386556e-06)
(0.0028162284 2.3128927e-06 1.6058715e-06)
(0.0028012324 2.357079e-06 1.5738226e-06)
(0.0027866658 2.3978719e-06 1.5431886e-06)
(0.0027725089 2.4362358e-06 1.5136871e-06)
(0.0027587418 2.4734405e-06 1.4848887e-06)
(0.002745346 2.5095341e-06 1.4567007e-06)
(0.002732305 2.5443514e-06 1.4291163e-06)
(0.0027196032 2.5777728e-06 1.4021112e-06)
(0.0027072261 2.6097243e-06 1.3756627e-06)
(0.0026951602 2.6401657e-06 1.3497559e-06)
(0.0026833928 2.6690876e-06 1.324375e-06)
(0.0026719116 2.6965041e-06 1.2995093e-06)
(0.0026607054 2.7223741e-06 1.2751523e-06)
(0.0026497635 2.746356e-06 1.2513133e-06)
(0.002639076 2.7689084e-06 1.2279785e-06)
(0.0026286333 2.790147e-06 1.2051289e-06)
(0.0026184262 2.8099927e-06 1.1827612e-06)
(0.0026084461 2.8284312e-06 1.1608706e-06)
(0.0025986849 2.8454919e-06 1.1394487e-06)
(0.0025891348 2.8612177e-06 1.1184906e-06)
(0.0025797885 2.875649e-06 1.0979869e-06)
(0.002570639 2.8888304e-06 1.0779283e-06)
(0.0025616795 2.9008062e-06 1.0583091e-06)
(0.0025529038 2.9116195e-06 1.0391189e-06)
(0.0025443058 2.9213139e-06 1.020348e-06)
(0.0025358796 2.9299293e-06 1.0019893e-06)
(0.0025276198 2.9375056e-06 9.8403178e-07)
(0.002519521 2.9440791e-06 9.6646472e-07)
(0.0025115783 2.9496814e-06 9.4927898e-07)
(0.0025037869 2.954338e-06 9.3246163e-07)
(0.0024961421 2.9580681e-06 9.1600023e-07)
(0.0024886396 2.9608814e-06 8.9987955e-07)
(0.0024812752 2.9627731e-06 8.8408487e-07)
(0.002474045 2.9637202e-06 8.6859462e-07)
(0.0024669452 2.9636864e-06 8.5338183e-07)
(0.0024599723 2.9626128e-06 8.3841371e-07)
(0.0024531231 2.9604309e-06 8.2364324e-07)
(0.0024463945 2.9570961e-06 8.0900293e-07)
(0.0024397839 2.9526504e-06 7.9439858e-07)
(0.0024332894 2.9473504e-06 7.7969356e-07)
(0.0024269099 2.9419124e-06 7.647097e-07)
(0.0024206457 2.9379215e-06 7.4925982e-07)
(0.0024144993 2.9384193e-06 7.3336498e-07)
(0.0024084767 2.9484966e-06 7.1826503e-07)
(0.0024025877 2.9751265e-06 7.1113321e-07)
(0.002396846 3.0234618e-06 7.4331326e-07)
(0.0023911946 3.0808292e-06 8.3046677e-07)
(0.0023803644 3.0574242e-06 2.2999438e-06)
(0.0094810492 4.4090135e-05 0.00022308885)
(0.0091422796 7.9975483e-05 0.00026874495)
(0.0086839084 0.00010160921 0.00025628771)
(0.0081880903 0.00011101591 0.00023793456)
(0.0077246858 0.00011275117 0.00021798622)
(0.0073029895 0.00010953687 0.00019578738)
(0.0069155191 0.00010266029 0.00017296032)
(0.0065579578 9.3267235e-05 0.0001510852)
(0.006229001 8.2539593e-05 0.00013089045)
(0.005927585 7.1446833e-05 0.00011261412)
(0.0056522063 6.0673359e-05 9.6309239e-05)
(0.0054012005 5.0670807e-05 8.1936268e-05)
(0.0051729477 4.1706608e-05 6.9390832e-05)
(0.004965887 3.3898115e-05 5.8529097e-05)
(0.0047784814 2.7249954e-05 4.9189878e-05)
(0.0046092054 2.1693074e-05 4.1208773e-05)
(0.0044565535 1.7117437e-05 3.4426143e-05)
(0.0043190553 1.3395519e-05 2.8691658e-05)
(0.0041952917 1.0397813e-05 2.3866805e-05)
(0.0040839086 8.0023317e-06 1.9826012e-05)
(0.0039836292 6.0997696e-06 1.645686e-05)
(0.0038932634 4.5956621e-06 1.3659716e-05)
(0.0038117126 3.4106727e-06 1.1347012e-05)
(0.0037379734 2.4799291e-06 9.4422908e-06)
(0.0036711359 1.751511e-06 7.8790901e-06)
(0.0036103859 1.1749052e-06 6.6010329e-06)
(0.0035549935 7.2234107e-07 5.5561198e-06)
(0.0035043108 3.7342553e-07 4.7060694e-06)
(0.0034577717 1.056954e-07 4.0163445e-06)
(0.0034148763 -9.9088805e-08 3.4574133e-06)
(0.0033751872 -2.5333561e-07 3.0054948e-06)
(0.0033383243 -3.6640041e-07 2.6409747e-06)
(0.0033039576 -4.4577866e-07 2.3475732e-06)
(0.0032718009 -4.974828e-07 2.1118263e-06)
(0.0032416065 -5.2634655e-07 1.9226419e-06)
(0.0032131599 -5.3631155e-07 1.7709157e-06)
(0.0031862758 -5.3064091e-07 1.6492032e-06)
(0.0031607936 -5.1206316e-07 1.5514416e-06)
(0.0031365743 -4.8287275e-07 1.47271e-06)
(0.0031134976 -4.4500749e-07 1.4090337e-06)
(0.0030914586 -4.001113e-07 1.3572058e-06)
(0.0030703663 -3.4957978e-07 1.314657e-06)
(0.0030501409 -2.9459381e-07 1.2793309e-06)
(0.0030307129 -2.3616946e-07 1.2495921e-06)
(0.0030120207 -1.7516565e-07 1.2241405e-06)
(0.0029940105 -1.1232127e-07 1.2019525e-06)
(0.0029766343 -4.8267901e-08 1.1822242e-06)
(0.0029598495 1.6449985e-08 1.1643219e-06)
(0.0029436181 8.1354957e-08 1.147753e-06)
(0.002927906 1.4602305e-07 1.1321244e-06)
(0.0029126825 2.1005765e-07 1.1171188e-06)
(0.0028979201 2.7304953e-07 1.1024392e-06)
(0.0028835935 3.3454055e-07 1.0876601e-06)
(0.0028696773 3.9432356e-07 1.0722028e-06)
(0.0028561514 4.5704976e-07 1.0590092e-06)
(0.0028429997 5.2060135e-07 1.0472574e-06)
(0.0028302035 5.8225391e-07 1.0356082e-06)
(0.0028177449 6.4163812e-07 1.0237998e-06)
(0.0028056084 6.9902074e-07 1.0118745e-06)
(0.0027937799 7.5456168e-07 9.9986883e-07)
(0.0027822461 8.0835049e-07 9.8780928e-07)
(0.0027709946 8.6046904e-07 9.7571757e-07)
(0.0027600137 9.1102479e-07 9.6360306e-07)
(0.0027492926 9.6019599e-07 9.5144751e-07)
(0.0027388207 1.0080069e-06 9.3926699e-07)
(0.0027285887 1.0528498e-06 9.2746525e-07)
(0.0027185878 1.0958671e-06 9.1582912e-07)
(0.0027088089 1.1375003e-06 9.0425362e-07)
(0.0026992438 1.1777674e-06 8.9275984e-07)
(0.0026898847 1.2166575e-06 8.8136628e-07)
(0.0026807244 1.2541688e-06 8.7008004e-07)
(0.0026717559 1.2903144e-06 8.5890667e-07)
(0.0026629726 1.3251073e-06 8.4785318e-07)
(0.0026543682 1.3585731e-06 8.3692242e-07)
(0.0026459367 1.3907393e-06 8.2612171e-07)
(0.0026376723 1.4216363e-06 8.1545275e-07)
(0.0026295698 1.4512905e-06 8.0491899e-07)
(0.0026216238 1.4797317e-06 7.9452244e-07)
(0.0026138294 1.5069902e-06 7.8426297e-07)
(0.002606182 1.5330934e-06 7.7414026e-07)
(0.0025986769 1.5580627e-06 7.6415199e-07)
(0.0025913099 1.5819206e-06 7.5429538e-07)
(0.0025840769 1.6046808e-06 7.4456466e-07)
(0.0025769739 1.6263495e-06 7.3495275e-07)