/*--------------------------------*- C++ -*----------------------------------*\
  =========                 |
  \\      /  F ield         | OpenFOAM: The Open Source CFD Toolbox
   \\    /   O peration     | Website:  https://openfoam.org
    \\  /    A nd           | Version:  7
     \\/     M anipulation  |
\*---------------------------------------------------------------------------*/
FoamFile
{
    version     2.0;
    format      ascii;
    class       surfaceScalarField;
    location    "2450/water";
    object      phi;
}
// * * * * * * * * * * * * * * * * * * * * * * * * * * * * * * * * * * * * * //

dimensions      [1 0 -1 0 0 0 0];

internalField   nonuniform List<scalar> 
156660
(
9.9057239e-05
6.0010402e-06
6.0528092e-06
8.6847498e-05
6.0555113e-06
6.1542307e-06
7.5687891e-05
5.5111363e-06
5.6484701e-06
6.5441704e-05
5.0404181e-06
5.2057689e-06
5.6267661e-05
4.4956436e-06
4.6783991e-06
4.8318019e-05
3.8797648e-06
4.0698777e-06
4.1624776e-05
3.2524449e-06
3.4407982e-06
3.6124897e-05
2.660462e-06
2.839417e-06
3.1692235e-05
2.1345126e-06
2.2981489e-06
2.8162841e-05
1.6926975e-06
1.8366964e-06
2.5361437e-05
1.3399934e-06
1.4614113e-06
2.3124664e-05
1.0698476e-06
1.1669256e-06
2.1315127e-05
8.687542e-07
9.4078225e-07
1.9825714e-05
7.2110064e-07
7.6831277e-07
1.8577278e-05
6.1248244e-07
6.3595305e-07
1.7513255e-05
5.3125219e-07
5.327715e-07
1.6593744e-05
4.6879724e-07
4.5071348e-07
1.5790433e-05
4.1913719e-07
3.8417386e-07
1.5082784e-05
3.7829073e-07
3.2935852e-07
1.4455417e-05
3.4367126e-07
2.8369566e-07
1.3896409e-05
3.1361406e-07
2.4539335e-07
1.339622e-05
2.8704451e-07
2.1314453e-07
1.2947015e-05
2.6326031e-07
1.8594511e-07
1.2542237e-05
2.4179368e-07
1.6298461e-07
1.2176318e-05
2.2232207e-07
1.435969e-07
1.1844484e-05
2.0461481e-07
1.2721882e-07
1.1542609e-05
1.8849494e-07
1.1337974e-07
1.1267116e-05
1.7381574e-07
1.0167793e-07
1.1014892e-05
1.6046272e-07
9.1760855e-08
1.0783252e-05
1.4833968e-07
8.3300589e-08
1.0569851e-05
1.3734905e-07
7.6052117e-08
1.0372614e-05
1.2738861e-07
6.9848317e-08
1.0189731e-05
1.1836804e-07
6.4514816e-08
1.001963e-05
1.1020445e-07
5.9896643e-08
9.8609388e-06
1.0281921e-07
5.5871674e-08
9.7124594e-06
9.6137941e-08
5.2341371e-08
9.5731439e-06
9.0091181e-08
4.9224378e-08
9.4420759e-06
8.4614475e-08
4.6453571e-08
9.3184531e-06
7.9648697e-08
4.3974129e-08
9.2015723e-06
7.5139737e-08
4.1741091e-08
9.0908166e-06
7.1038181e-08
3.9717563e-08
8.9856432e-06
6.7301147e-08
3.7872321e-08
8.8855707e-06
6.389426e-08
3.6178162e-08
8.7901757e-06
6.078014e-08
3.4614932e-08
8.6990829e-06
5.7926198e-08
3.316664e-08
8.611959e-06
5.5303728e-08
3.1820102e-08
8.5285072e-06
5.2887454e-08
3.0564398e-08
8.4484618e-06
5.065508e-08
2.9390288e-08
8.3715848e-06
4.8587049e-08
2.8290032e-08
8.2976614e-06
4.6666211e-08
2.7257235e-08
8.2264975e-06
4.4877479e-08
2.6286439e-08
8.1579202e-06
4.3208776e-08
2.536853e-08
8.0917731e-06
4.164904e-08
2.4498038e-08
8.0279107e-06
4.0187002e-08
2.3675362e-08
7.9662005e-06
3.8812681e-08
2.2897546e-08
7.9065219e-06
3.7518393e-08
2.216025e-08
7.8487639e-06
3.6297862e-08
2.1460144e-08
7.7928241e-06
3.5145134e-08
2.0794615e-08
7.7386083e-06
3.405468e-08
2.0161174e-08
7.6860293e-06
3.3021353e-08
1.9557685e-08
7.6350062e-06
3.2040798e-08
1.8982267e-08
7.5854641e-06
3.1109061e-08
1.8433082e-08
7.537333e-06
3.0222624e-08
1.7908471e-08
7.4905477e-06
2.9378259e-08
1.7407011e-08
7.4450476e-06
2.8573027e-08
1.6927214e-08
7.4007755e-06
2.7804239e-08
1.6467807e-08
7.3576783e-06
2.7069595e-08
1.6027633e-08
7.3157056e-06
2.6367074e-08
1.5605625e-08
7.2748103e-06
2.5694676e-08
1.5200669e-08
7.2349479e-06
2.5050563e-08
1.4811828e-08
7.1960766e-06
2.4433104e-08
1.4438201e-08
7.158157e-06
2.384068e-08
1.4078933e-08
7.1211518e-06
2.3271949e-08
1.3733279e-08
7.0850258e-06
2.2725516e-08
1.3400531e-08
7.0497456e-06
2.2200203e-08
1.3079934e-08
7.0152798e-06
2.1694903e-08
1.2770909e-08
6.9815985e-06
2.1208587e-08
1.2472776e-08
6.9486733e-06
2.0740252e-08
1.218494e-08
6.9164775e-06
2.0288993e-08
1.1906787e-08
6.8849857e-06
1.9853948e-08
1.1637847e-08
6.8541739e-06
1.9434336e-08
1.1377459e-08
6.8240193e-06
1.9029446e-08
1.112514e-08
6.7945006e-06
1.8638487e-08
1.0880234e-08
6.7655975e-06
1.8260765e-08
1.0642296e-08
6.7372912e-06
1.7895551e-08
1.0410742e-08
6.709564e-06
1.7542085e-08
1.0185071e-08
6.6823995e-06
1.719963e-08
9.9648901e-09
6.6557824e-06
1.6867279e-08
9.7498147e-09
6.6296983e-06
1.6544149e-08
9.5399874e-09
6.604133e-06
1.6229284e-08
9.3360129e-09
6.5790714e-06
1.5921988e-08
9.1396804e-09
6.554494e-06
1.5622361e-08
8.9550998e-09
6.5303708e-06
1.5332575e-08
8.790673e-09
6.5066467e-06
1.5060493e-08
8.6636231e-09
6.4832094e-06
1.4827848e-08
8.6095089e-09
6.4598103e-06
1.4693104e-08
8.7060109e-09
6.4358387e-06
1.4826383e-08
9.145173e-09
6.4096302e-06
1.5741746e-08
1.0466749e-08
6.3782854e-06
1.8026549e-08
1.3318214e-08
3.2300222e-08
2.792351e-08
0.00010646494
4.1872385e-06
6.4599816e-06
0.0001002019
5.695418e-06
6.6231353e-06
9.3659588e-05
5.7790389e-06
6.2744098e-06
8.7011589e-05
5.6514782e-06
6.0369387e-06
8.0422927e-05
5.366912e-06
5.7173941e-06
7.4094022e-05
4.9022832e-06
5.3063862e-06
6.8167026e-05
4.3278135e-06
4.8516272e-06
6.2722565e-05
3.717891e-06
4.387032e-06
5.7799049e-05
3.1243144e-06
3.9337145e-06
5.3403345e-05
2.5820688e-06
3.5063329e-06
4.9517402e-05
2.1121062e-06
3.1138299e-06
4.6105482e-05
1.7220197e-06
2.7597473e-06
4.3121558e-05
1.4089355e-06
2.4437429e-06
4.0515558e-05
1.1637552e-06
2.163346e-06
3.8237948e-05
9.7485848e-07
1.9152336e-06
3.6242683e-05
8.3055974e-07
1.6959573e-06
3.4488759e-05
7.2043694e-07
1.5022849e-06
3.2940716e-05
6.3586298e-07
1.3313172e-06
3.1568463e-05
5.7005007e-07
1.1804931e-06
3.0346733e-05
5.1784897e-07
1.0475522e-06
2.9254398e-05
4.7545954e-07
9.3049034e-07
2.8273782e-05
4.4013956e-07
8.2752024e-07
2.7390054e-05
4.0994891e-07
7.3704006e-07
2.6590699e-05
3.8353953e-07
6.5760857e-07
2.5865102e-05
3.5998889e-07
5.8793071e-07
2.5204197e-05
3.3867631e-07
5.268426e-07
2.4600205e-05
3.191836e-07
4.7330348e-07
2.4046429e-05
3.012019e-07
4.2639014e-07
2.3537073e-05
2.8455204e-07
3.8526716e-07
2.3067119e-05
2.69111e-07
3.4918237e-07
2.2632208e-05
2.5478164e-07
3.1747785e-07
2.2228528e-05
2.414738e-07
2.895953e-07
2.1852744e-05
2.2911072e-07
2.6504124e-07
2.1501947e-05
2.1762893e-07
2.433726e-07
2.1173591e-05
2.0696952e-07
2.2420571e-07
2.0865444e-05
1.9707568e-07
2.0720867e-07
2.0575549e-05
1.8789254e-07
1.92094e-07
2.0302183e-05
1.7936724e-07
1.7861345e-07
2.0043829e-05
1.714491e-07
1.6655322e-07
1.979915e-05
1.6408981e-07
1.5572941e-07
1.956696e-05
1.5724381e-07
1.4598401e-07
1.934621e-05
1.5086893e-07
1.3718218e-07
1.9135969e-05
1.4492653e-07
1.2920882e-07
1.8935407e-05
1.3937906e-07
1.2196308e-07
1.8743783e-05
1.3419233e-07
1.1535764e-07
1.8560435e-05
1.2933511e-07
1.0931728e-07
1.8384766e-05
1.2477907e-07
1.0377714e-07
1.8216241e-05
1.2049851e-07
9.8681272e-08
1.8054377e-05
1.1647012e-07
9.3981308e-08
1.7898734e-05
1.1267293e-07
8.9635428e-08
1.7748917e-05
1.0908819e-07
8.5606986e-08
1.7604563e-05
1.0570001e-07
8.1862405e-08
1.7465345e-05
1.0249336e-07
7.8373285e-08
1.7330962e-05
9.945299e-08
7.5116993e-08
1.7201138e-05
9.6564384e-08
7.2072744e-08
1.7075619e-05
9.3816638e-08
6.9221179e-08
1.695417e-05
9.1201104e-08
6.6545102e-08
1.6836577e-05
8.8709106e-08
6.4029537e-08
1.6722638e-05
8.6331971e-08
6.1661059e-08
1.661217e-05
8.4061765e-08
5.9427725e-08
1.6505001e-05
8.1891542e-08
5.7318803e-08
1.640097e-05
7.9814927e-08
5.5324843e-08
1.6299929e-05
7.7826166e-08
5.3437095e-08
1.620174e-05
7.5919868e-08
5.1647902e-08
1.6106272e-05
7.4091022e-08
4.9950119e-08
1.6013404e-05
7.2334977e-08
4.8337345e-08
1.5923022e-05
7.0647705e-08
4.680384e-08
1.5835019e-05
6.9025738e-08
4.5344269e-08
1.5749294e-05
6.7465539e-08
4.3953687e-08
1.5665753e-05
6.5963782e-08
4.2627683e-08
1.5584307e-05
6.4517361e-08
4.1362161e-08
1.5504871e-05
6.3123424e-08
4.0153373e-08
1.5427365e-05
6.1779306e-08
3.8997797e-08
1.5351716e-05
6.0482506e-08
3.7892295e-08
1.5277852e-05
5.9230802e-08
3.6833847e-08
1.5205705e-05
5.8021978e-08
3.5819744e-08
1.5135212e-05
5.6853996e-08
3.4847376e-08
1.5066313e-05
5.5724986e-08
3.3914336e-08
1.499895e-05
5.4633093e-08
3.3018422e-08
1.493307e-05
5.357675e-08
3.2157434e-08
1.4868621e-05
5.2554216e-08
3.13294e-08
1.4805554e-05
5.1563976e-08
3.0532456e-08
1.4743823e-05
5.0604501e-08
2.9764648e-08
1.4683386e-05
4.9674295e-08
2.9024387e-08
1.4624199e-05
4.8771823e-08
2.8309877e-08
1.4566226e-05
4.789546e-08
2.7619568e-08
1.4509431e-05
4.7043502e-08
2.6951968e-08
1.4453778e-05
4.6214089e-08
2.6305763e-08
1.4399237e-05
4.5405403e-08
2.5679866e-08
1.4345777e-05
4.4615702e-08
2.5073718e-08
1.4293367e-05
4.3844252e-08
2.4487706e-08
1.4241972e-05
4.3092867e-08
2.3923755e-08
1.4191548e-05
4.2369917e-08
2.3387135e-08
1.4142019e-05
4.1699313e-08
2.2889628e-08
1.4093249e-05
4.1141647e-08
2.2456587e-08
1.4044951e-05
4.084462e-08
2.2146551e-08
1.3996485e-05
4.1169193e-08
2.2123063e-08
1.3946229e-05
4.3012297e-08
2.2985397e-08
1.389015e-05
4.8540235e-08
2.5565785e-08
6.328156e-08
5.0000839e-08
0.00010603565
2.7876425e-06
6.4750379e-06
0.00010074799
4.4145413e-06
6.5685292e-06
9.5493515e-05
4.8594028e-06
6.1741158e-06
9.0256432e-05
4.930369e-06
5.9581921e-06
8.5101366e-05
4.8311767e-06
5.6908011e-06
8.0102875e-05
4.5561761e-06
5.3445981e-06
7.5322251e-05
4.146952e-06
4.9614853e-06
7.0803266e-05
3.6678925e-06
4.5689837e-06
6.6576264e-05
3.1701903e-06
4.1811255e-06
6.2660725e-05
2.6900109e-06
3.8075976e-06
5.9065443e-05
2.2519318e-06
3.4554566e-06
5.5788936e-05
1.8697304e-06
3.1287958e-06
5.2820978e-05
1.5477473e-06
2.8291458e-06
5.014479e-05
1.2836302e-06
2.5563139e-06
4.7739304e-05
1.07123e-06
2.3091141e-06
4.5581183e-05
9.0281504e-07
2.0858661e-06
4.3646423e-05
7.704878e-07
1.884709e-06
4.1911533e-05
6.6697375e-07
1.7037792e-06
4.0354306e-05
5.8598199e-07
1.541295e-06
3.8954268e-05
5.2230222e-07
1.3955849e-06
3.769288e-05
4.7175604e-07
1.2650911e-06
3.6553576e-05
4.3107983e-07
1.1483634e-06
3.552169e-05
3.9778204e-07
1.0440533e-06
3.4584322e-05
3.6999886e-07
9.5090831e-07
3.3730181e-05
3.4635987e-07
8.6777018e-07
3.2949411e-05
3.2587759e-07
7.9356872e-07
3.2233419e-05
3.0784045e-07
7.2733485e-07
3.1574711e-05
2.9172981e-07
6.6818104e-07
3.0966769e-05
2.7719264e-07
6.1530127e-07
3.0403928e-05
2.6398098e-07
5.679702e-07
2.9881258e-05
2.5190844e-07
5.2554316e-07
2.9394455e-05
2.4082712e-07
4.8745e-07
2.8939761e-05
2.3062159e-07
4.5318327e-07
2.8513895e-05
2.2120152e-07
4.2229385e-07
2.8113985e-05
2.1249199e-07
3.9438675e-07
2.7737518e-05
2.0442799e-07
3.691149e-07
2.7382285e-05
1.9695192e-07
3.4617385e-07
2.7046344e-05
1.9001177e-07
3.2529679e-07
2.6727982e-05
1.8355995e-07
3.0625043e-07
2.6425689e-05
1.7755275e-07
2.8883084e-07
2.6138123e-05
1.7195005e-07
2.7285984e-07
2.5864094e-05
1.6671518e-07
2.5818185e-07
2.5602546e-05
1.6181458e-07
2.4466092e-07
2.535253e-05
1.572171e-07
2.3217765e-07
2.51132e-05
1.5289444e-07
2.2062726e-07
2.4883797e-05
1.4882096e-07
2.0991771e-07
2.4663634e-05
1.4497367e-07
1.9996811e-07
2.4452094e-05
1.4133183e-07
1.9070707e-07
2.4248615e-05
1.3787696e-07
1.8207155e-07
2.405269e-05
1.3459265e-07
1.7400573e-07
2.3863854e-05
1.3146458e-07
1.6645991e-07
2.3681684e-05
1.2848054e-07
1.5938925e-07
2.3505794e-05
1.2562917e-07
1.5275413e-07
2.3335829e-05
1.2289868e-07
1.4651968e-07
2.3171462e-05
1.2027633e-07
1.4065462e-07
2.3012394e-05
1.1775472e-07
1.3513023e-07
2.2858345e-05
1.1532969e-07
1.2992044e-07
2.2709057e-05
1.1299541e-07
1.2500174e-07
2.2564291e-05
1.1074519e-07
1.203529e-07
2.2423824e-05
1.0857347e-07
1.1595459e-07
2.2287451e-05
1.0647548e-07
1.1178921e-07
2.2154978e-05
1.04447e-07
1.0784078e-07
2.2026226e-05
1.024842e-07
1.0409458e-07
2.1901025e-05
1.0058352e-07
1.0053714e-07
2.1779218e-05
9.8741517e-08
9.7156152e-08
2.1660658e-05
9.6954916e-08
9.3940279e-08
2.1545205e-05
9.5221251e-08
9.0879011e-08
2.1432729e-05
9.3538819e-08
8.7962801e-08
2.1323107e-05
9.1905337e-08
8.5182617e-08
2.1216222e-05
9.0318529e-08
8.2530174e-08
2.1111965e-05
8.8776401e-08
7.9997889e-08
2.1010233e-05
8.7277127e-08
7.7578648e-08
2.0910927e-05
8.581897e-08
7.526586e-08
2.0813956e-05
8.4400341e-08
7.3053457e-08
2.0719232e-05
8.3019688e-08
7.0935645e-08
2.0626671e-05
8.1675616e-08
6.8907203e-08
2.0536195e-05
8.036683e-08
6.6963147e-08
2.0447729e-05
7.9091934e-08
6.5098792e-08
2.0361203e-05
7.7849818e-08
6.3309791e-08
2.0276548e-05
7.6639227e-08
6.1592081e-08
2.0193702e-05
7.5458983e-08
5.9941736e-08
2.0112602e-05
7.4307946e-08
5.8355211e-08
2.0033193e-05
7.3184913e-08
5.6829068e-08
1.9955419e-05
7.2088629e-08
5.535998e-08
1.9879228e-05
7.1017647e-08
5.3944823e-08
1.9804572e-05
6.9970422e-08
5.2580697e-08
1.9731406e-05
6.8945241e-08
5.1264812e-08
1.9659685e-05
6.7940144e-08
4.9994396e-08
1.9589371e-05
6.6953061e-08
4.8767006e-08
1.9520423e-05
6.5982363e-08
4.7580526e-08
1.9452806e-05
6.5028006e-08
4.64331e-08
1.9386482e-05
6.4094127e-08
4.5323724e-08
1.9321404e-05
6.3194692e-08
4.4253064e-08
1.9257511e-05
6.2366338e-08
4.3225197e-08
1.9194705e-05
6.1695149e-08
4.2253152e-08
1.9132798e-05
6.1374064e-08
4.1377407e-08
1.9071394e-05
6.182242e-08
4.0750689e-08
1.9009424e-05
6.3924723e-08
4.1057618e-08
1.8944661e-05
6.9304667e-08
4.3998841e-08
7.9170938e-08
7.4661564e-08
0.0001054937
1.9169871e-06
6.4880406e-06
0.00010005365
3.2729596e-06
6.5816334e-06
9.4926077e-05
3.8288995e-06
6.1580776e-06
8.9946373e-05
3.9838109e-06
5.9262629e-06
8.5163276e-05
3.9595077e-06
5.6547657e-06
8.0619137e-05
3.7899368e-06
5.3103784e-06
7.6329462e-05
3.5015547e-06
4.9350725e-06
7.230016e-05
3.1412013e-06
4.5559928e-06
6.8534206e-05
2.7514802e-06
4.1846641e-06
6.5032983e-05
2.3633493e-06
3.8278852e-06
6.1795789e-05
1.9984143e-06
3.490711e-06
5.8818843e-05
1.670376e-06
3.176301e-06
5.6094717e-05
1.3858295e-06
2.886043e-06
5.3612488e-05
1.1457945e-06
2.6200649e-06
5.1358373e-05
9.4764119e-07
2.3777043e-06
4.9316593e-05
7.8676784e-07
2.1578272e-06
4.7470246e-05
6.5779546e-07
1.9590391e-06
4.5802069e-05
5.553254e-07
1.7798252e-06
4.4295042e-05
4.7437116e-07
1.6186378e-06
4.293283e-05
4.1056667e-07
1.473948e-06
4.1700078e-05
3.6023238e-07
1.3442759e-06
4.0582591e-05
3.2035743e-07
1.2282094e-06
3.956742e-05
2.8853739e-07
1.1244154e-06
3.8642881e-05
2.6289063e-07
1.0316467e-06
3.7798527e-05
2.4196986e-07
9.4874399e-07
3.7025076e-05
2.2467706e-07
8.746517e-07
3.6314324e-05
2.1018897e-07
8.0840411e-07
3.5659057e-05
1.9788603e-07
7.4911044e-07
3.5052961e-05
1.8731582e-07
6.959728e-07
3.4490519e-05
1.7814869e-07
6.4827378e-07
3.3966922e-05
1.7013168e-07
6.0537438e-07
3.3477973e-05
1.6306726e-07
5.6670866e-07
3.3020016e-05
1.5680296e-07
5.3177541e-07
3.2589865e-05
1.5122057e-07
5.001324e-07
3.218474e-05
1.4622564e-07
4.7139137e-07
3.1802215e-05
1.4174075e-07
4.4521233e-07
3.1440168e-05
1.3770095e-07
4.2129809e-07
3.1096739e-05
1.3405096e-07
3.9938924e-07
3.0770297e-05
1.3074296e-07
3.7925955e-07
3.0459402e-05
1.2773519e-07
3.6071194e-07
3.0162787e-05
1.2499095e-07
3.4357478e-07
2.9879325e-05
1.2247788e-07
3.276985e-07
2.960802e-05
1.2016736e-07
3.1295269e-07
2.934798e-05
1.1803383e-07
2.9922352e-07
2.9098408e-05
1.1605463e-07
2.8641139e-07
2.885859e-05
1.1420985e-07
2.7442906e-07
2.8627882e-05
1.1248189e-07
2.632e-07
2.8405701e-05
1.1085559e-07
2.5265686e-07
2.819152e-05
1.0931759e-07
2.4274023e-07
2.7984859e-05
1.0785647e-07
2.3339757e-07
2.7785279e-05
1.0646277e-07
2.2458212e-07
2.7592378e-05
1.0512866e-07
2.1625213e-07
2.740579e-05
1.0384734e-07
2.0837036e-07
2.7225174e-05
1.0261115e-07
2.0090361e-07
2.705022e-05
1.0140746e-07
1.938226e-07
2.6880641e-05
1.0023384e-07
1.8710045e-07
2.6716166e-05
9.9092366e-08
1.8071228e-07
2.6556546e-05
9.7979986e-08
1.746356e-07
2.6401548e-05
9.6892559e-08
1.6885017e-07
2.6250957e-05
9.5827096e-08
1.6333744e-07
2.610457e-05
9.4781711e-08
1.5808045e-07
2.5962199e-05
9.3754725e-08
1.5306363e-07
2.5823666e-05
9.2744892e-08
1.482726e-07
2.5688804e-05
9.1751e-08
1.4369412e-07
2.5557458e-05
9.0771757e-08
1.3931596e-07
2.5429481e-05
8.9805176e-08
1.3512694e-07
2.5304734e-05
8.8851486e-08
1.3111645e-07
2.5183087e-05
8.7911207e-08
1.2727466e-07
2.5064416e-05
8.6983916e-08
1.2359242e-07
2.4948604e-05
8.6068916e-08
1.2006119e-07
2.4835542e-05
8.516579e-08
1.1667303e-07
2.4725124e-05
8.4274325e-08
1.1342046e-07
2.4617252e-05
8.3394264e-08
1.1029657e-07
2.4511832e-05
8.2525453e-08
1.0729479e-07
2.4408775e-05
8.1667763e-08
1.0440899e-07
2.4307997e-05
8.0820961e-08
1.0163343e-07
2.4209416e-05
7.9985005e-08
9.8962667e-08
2.4112956e-05
7.9159732e-08
9.6391553e-08
2.4018546e-05
7.8345025e-08
9.3915302e-08
2.3926115e-05
7.7540711e-08
9.1529314e-08
2.3835598e-05
7.6746536e-08
8.9229265e-08
2.3746933e-05
7.5962312e-08
8.701102e-08
2.366006e-05
7.5187613e-08
8.4870708e-08
2.3574922e-05
7.4421995e-08
8.2804545e-08
2.3491466e-05
7.366464e-08
8.0808909e-08
2.3409641e-05
7.2914654e-08
7.8880365e-08
2.33294e-05
7.2170707e-08
7.7015515e-08
2.3250698e-05
7.143134e-08
7.5211019e-08
2.3173492e-05
7.0694871e-08
7.3463601e-08
2.3097745e-05
6.9960231e-08
7.1770074e-08
2.3023418e-05
6.9227978e-08
7.0127006e-08
2.2950477e-05
6.8503495e-08
6.85312e-08
2.2878889e-05
6.7802877e-08
6.6979688e-08
2.2808619e-05
6.7165068e-08
6.5471588e-08
2.2739625e-05
6.6675232e-08
6.401336e-08
2.267185e-05
6.6507072e-08
6.2642296e-08
2.2605149e-05
6.6990711e-08
6.1532361e-08
2.2538888e-05
6.8686027e-08
6.1499895e-08
2.2471121e-05
7.2226956e-08
6.4845108e-08
7.6722813e-08
9.8461309e-08
0.0001051979
1.3340884e-06
6.4961221e-06
9.9496561e-05
2.3731022e-06
6.6011947e-06
9.4262459e-05
2.9019224e-06
6.1610799e-06
8.9251186e-05
3.0856641e-06
5.9094196e-06
8.4493497e-05
3.0947347e-06
5.6224614e-06
8.0033635e-05
2.9846656e-06
5.265134e-06
7.5876907e-05
2.7790155e-06
4.8792667e-06
7.2014635e-05
2.5106843e-06
4.4927895e-06
6.8436293e-05
2.2128728e-06
4.1169489e-06
6.5131387e-05
1.9107258e-06
3.7575292e-06
6.208941e-05
1.6217321e-06
3.4186596e-06
5.9299432e-05
1.3573877e-06
3.1029661e-06
5.6749589e-05
1.1240344e-06
2.8116387e-06
5.4426788e-05
9.2377947e-07
2.5448158e-06
5.2316754e-05
7.5572799e-07
2.3019465e-06
5.0404313e-05
6.1717854e-07
2.0820302e-06
4.8673788e-05
5.045435e-07
1.8837772e-06
4.7109414e-05
4.1397179e-07
1.7057274e-06
4.5695713e-05
3.4173648e-07
1.5463363e-06
4.4417792e-05
2.8445146e-07
1.4040359e-06
4.3261575e-05
2.3917114e-07
1.277278e-06
4.2213953e-05
2.0341503e-07
1.1645652e-06
4.1262871e-05
1.751474e-07
1.0644718e-06
4.039737e-05
1.5273234e-07
9.75659e-07
3.9607583e-05
1.348753e-07
8.9688145e-07
3.8884688e-05
1.2055566e-07
8.2701638e-07
3.8220848e-05
1.0901093e-07
7.6501855e-07
3.7609155e-05
9.9633861e-08
7.0994486e-07
3.7043542e-05
9.1977428e-08
6.6095087e-07
3.6518702e-05
8.5705797e-08
6.1728286e-07
3.6030009e-05
8.0552371e-08
5.7827308e-07
3.5573433e-05
7.6308263e-08
5.4333412e-07
3.5145475e-05
7.2811269e-08
5.1195024e-07
3.4743091e-05
6.9934148e-08
4.8367022e-07
3.4363641e-05
6.7575469e-08
4.5810063e-07
3.4004828e-05
6.5652904e-08
4.3489997e-07
3.3664659e-05
6.4098619e-08
4.137721e-07
3.3341393e-05
6.2855939e-08
3.9446097e-07
3.3033513e-05
6.1877064e-08
3.7674527e-07
3.2739693e-05
6.1121127e-08
3.6043422e-07
3.2458768e-05
6.055311e-08
3.453633e-07
3.2189712e-05
6.0142724e-08
3.3139056e-07
3.1931622e-05
5.9863675e-08
3.1839375e-07
3.1683696e-05
5.9693131e-08
3.0626733e-07
3.1445219e-05
5.9611215e-08
2.9492012e-07
3.1215555e-05
5.9600657e-08
2.8427315e-07
3.0994132e-05
5.9646569e-08
2.7425808e-07
3.0780436e-05
5.9736187e-08
2.648154e-07
3.0574002e-05
5.9858676e-08
2.5589334e-07
3.0374407e-05
6.0004942e-08
2.4744665e-07
3.0181267e-05
6.0167619e-08
2.394355e-07
2.9994229e-05
6.0341227e-08
2.3182485e-07
2.9812971e-05
6.0521773e-08
2.2458373e-07
2.9637193e-05
6.0704449e-08
2.1768453e-07
2.9466629e-05
6.0867274e-08
2.1110456e-07
2.9301024e-05
6.1017e-08
2.0482179e-07
2.914014e-05
6.1160869e-08
1.9881569e-07
2.8983756e-05
6.1294998e-08
1.9306839e-07
2.8831669e-05
6.1415517e-08
1.8756391e-07
2.8683688e-05
6.1520965e-08
1.8228765e-07
2.8539633e-05
6.1610601e-08
1.7722637e-07
2.8399336e-05
6.16838e-08
1.7236786e-07
2.8262639e-05
6.1740424e-08
1.6770088e-07
2.8129394e-05
6.1780688e-08
1.6321521e-07
2.7999461e-05
6.1803895e-08
1.589012e-07
2.7872709e-05
6.1807377e-08
1.5475034e-07
2.7749012e-05
6.1793591e-08
1.5075442e-07
2.7628253e-05
6.1764826e-08
1.4690559e-07
2.7510319e-05
6.1720993e-08
1.4319661e-07
2.7395105e-05
6.1662116e-08
1.3962083e-07
2.728251e-05
6.1588633e-08
1.3617202e-07
2.7172439e-05
6.150107e-08
1.3284419e-07
2.7064802e-05
6.1399954e-08
1.2963193e-07
2.6959511e-05
6.128592e-08
1.2652993e-07
2.6856486e-05
6.1159509e-08
1.2353325e-07
2.6755649e-05
6.1021297e-08
1.2063732e-07
2.6656924e-05
6.0871853e-08
1.1783767e-07
2.6560242e-05
6.0711685e-08
1.1513015e-07
2.6465535e-05
6.0541404e-08
1.1251078e-07
2.6372738e-05
6.0361346e-08
1.0997582e-07
2.6281791e-05
6.0171941e-08
1.075216e-07
2.6192636e-05
5.9973538e-08
1.0514471e-07
2.6105215e-05
5.9766318e-08
1.0284183e-07
2.6019477e-05
5.955023e-08
1.0060971e-07
2.5935371e-05
5.9325135e-08
9.8445247e-08
2.585285e-05
5.9090469e-08
9.6345387e-08
2.5771868e-05
5.8845481e-08
9.4306936e-08
2.5692384e-05
5.8589011e-08
9.232675e-08
2.5614357e-05
5.8319811e-08
9.0401435e-08
2.5537753e-05
5.8037085e-08
8.8527316e-08
2.5462539e-05
5.7741648e-08
8.6700214e-08
2.5388689e-05
5.7438408e-08
8.4915158e-08
2.5316184e-05
5.714141e-08
8.3166604e-08
2.5245017e-05
5.6882563e-08
8.1449625e-08
2.51752e-05
5.672601e-08
7.9765828e-08
2.510677e-05
5.6787878e-08
7.8149189e-08
2.5039729e-05
5.7251569e-08
7.6780964e-08
2.4973573e-05
5.8330928e-08
7.6510211e-08
2.4906079e-05
5.9989476e-08
7.9732144e-08
6.0715e-08
1.1287824e-07
0.00010503672
9.0789372e-07
6.5005614e-06
9.9140653e-05
1.6524914e-06
6.6166802e-06
9.3788329e-05
2.0825241e-06
6.1717217e-06
8.8708526e-05
2.2549373e-06
5.91053e-06
8.3909682e-05
2.278404e-06
5.6151748e-06
7.9437109e-05
2.2074821e-06
5.2497564e-06
7.5296201e-05
2.0645348e-06
4.8553893e-06
7.1474034e-05
1.8722543e-06
4.4605969e-06
6.7955013e-05
1.6547667e-06
4.0771269e-06
6.4723621e-05
1.4313505e-06
3.7107669e-06
6.1764423e-05
1.2154297e-06
3.3655007e-06
5.9062056e-05
1.015864e-06
3.0438911e-06
5.6601108e-05
8.3782745e-07
2.7471548e-06
5.4365944e-05
6.8344649e-07
2.475497e-06
5.2340648e-05
5.5258526e-07
2.2284383e-06
5.0509125e-05
4.4366549e-07
2.0050361e-06
4.8855299e-05
3.5433456e-07
1.8040352e-06
4.7363353e-05
2.8193591e-07
1.6239821e-06
4.6017963e-05
2.2381345e-07
1.4633127e-06
4.4804502e-05
1.7749383e-07
1.3204181e-06
4.3709199e-05
1.4078088e-07
1.1936935e-06
4.2719248e-05
1.1179155e-07
1.081575e-06
4.1822875e-05
8.8954544e-08
9.8256586e-07
4.1009364e-05
7.0987989e-08
8.9525475e-07
4.0269054e-05
5.6861827e-08
8.1832385e-07
3.9593306e-05
4.5719123e-08
7.5058475e-07
3.8974405e-05
3.6977883e-08
6.9093437e-07
3.8405585e-05
3.0067398e-08
6.3838633e-07
3.7880869e-05
2.4650856e-08
5.9204238e-07
3.7395029e-05
2.0439996e-08
5.5110607e-07
3.6943514e-05
1.7190293e-08
5.1487715e-07
3.6522366e-05
1.471673e-08
4.8273954e-07
3.6128148e-05
1.287477e-08
4.5415388e-07
3.5757883e-05
1.1549883e-08
4.2864944e-07
3.5408991e-05
1.0650772e-08
4.0581705e-07
3.5079238e-05
1.0103659e-08
3.853023e-07
3.4766689e-05
9.8482788e-09
3.6679879e-07
3.4469668e-05
9.8351161e-09
3.5004233e-07
3.4186716e-05
1.0022939e-08
3.3480554e-07
3.3916567e-05
1.0377032e-08
3.2089285e-07
3.3658116e-05
1.0868082e-08
3.0813659e-07
3.3410395e-05
1.1470988e-08
2.9639284e-07
3.3172556e-05
1.2164258e-08
2.8553827e-07
3.2943852e-05
1.2929347e-08
2.7546719e-07
3.2723625e-05
1.3750167e-08
2.6608894e-07
3.2511286e-05
1.4613086e-08
2.5732573e-07
3.2306316e-05
1.5506251e-08
2.4911066e-07
3.2108246e-05
1.6419614e-08
2.4138622e-07
3.1916658e-05
1.7344665e-08
2.341027e-07
3.1731171e-05
1.8274326e-08
2.2721709e-07
3.1551444e-05
1.9203182e-08
2.2069217e-07
3.1377162e-05
2.0127702e-08
2.1449509e-07
3.1208038e-05
2.1048641e-08
2.085968e-07
3.10438e-05
2.1972768e-08
2.0297055e-07
3.0884232e-05
2.2827859e-08
1.976074e-07
3.0729103e-05
2.3662984e-08
1.9248228e-07
3.05782e-05
2.4489988e-08
1.875738e-07
3.0431331e-05
2.5296291e-08
1.8286763e-07
3.0288318e-05
2.6078006e-08
1.7835076e-07
3.0148994e-05
2.6834336e-08
1.7401107e-07
3.0013202e-05
2.7564702e-08
1.6983754e-07
2.9880797e-05
2.8268956e-08
1.6582024e-07
2.975164e-05
2.8947453e-08
1.6195014e-07
2.96256e-05
2.9600771e-08
1.5821898e-07
2.9502557e-05
3.0228547e-08
1.5461919e-07
2.9382396e-05
3.0823599e-08
1.5114463e-07
2.9265007e-05
3.1393139e-08
1.4778878e-07
2.9150287e-05
3.1939576e-08
1.4454537e-07
2.9038137e-05
3.246188e-08
1.4140897e-07
2.8928465e-05
3.296005e-08
1.3837461e-07
2.8821181e-05
3.3434711e-08
1.3543753e-07
2.8716203e-05
3.3886373e-08
1.3259331e-07
2.8613449e-05
3.4315564e-08
1.2983789e-07
2.8512845e-05
3.4722874e-08
1.2716738e-07
2.8414317e-05
3.5108991e-08
1.2457816e-07
2.8317797e-05
3.5474427e-08
1.2206678e-07
2.8223219e-05
3.58199e-08
1.1963008e-07
2.813052e-05
3.6145919e-08
1.1726493e-07
2.803964e-05
3.6453068e-08
1.149684e-07
2.7950522e-05
3.6741891e-08
1.1273775e-07
2.7863111e-05
3.7012803e-08
1.1057029e-07
2.7777354e-05
3.7266246e-08
1.0846343e-07
2.7693204e-05
3.750247e-08
1.0641474e-07
2.761061e-05
3.7721572e-08
1.0442172e-07
2.752953e-05
3.7923528e-08
1.0248202e-07
2.7449919e-05
3.8107981e-08
1.0059306e-07
2.7371738e-05
3.8274246e-08
9.8752297e-08
2.7294949e-05
3.8421532e-08
9.6956861e-08
2.7219516e-05
3.8548716e-08
9.5203613e-08
2.714541e-05
3.865512e-08
9.3488604e-08
2.7072603e-05
3.8741151e-08
9.1806937e-08
2.7001079e-05
3.8810277e-08
9.0152319e-08
2.6930832e-05
3.8872155e-08
8.8516575e-08
2.6861876e-05
3.8947404e-08
8.6890541e-08
2.679426e-05
3.9073521e-08
8.5269192e-08
2.6728065e-05
3.9306945e-08
8.3675925e-08
2.6663337e-05
3.9708335e-08
8.2271168e-08
2.659956e-05
4.0272003e-08
8.1836211e-08
2.6534295e-05
4.0698026e-08
8.45557e-08
3.962085e-08
1.1507132e-07
0.00010494757
5.6811081e-07
6.5033077e-06
9.8925416e-05
1.0462983e-06
6.6283517e-06
9.3480449e-05
1.3439845e-06
6.1835065e-06
8.8341777e-05
1.4751324e-06
5.9184763e-06
8.3502084e-05
1.4993911e-06
5.6187065e-06
7.9004057e-05
1.4572411e-06
5.2482679e-06
7.4853978e-05
1.3667382e-06
4.8478757e-06
7.1037378e-05
1.2423973e-06
4.4464569e-06
6.7536063e-05
1.0997693e-06
4.0563128e-06
6.4331998e-05
9.519236e-07
3.683491e-06
6.1407318e-05
8.0805754e-07
3.3320524e-06
5.8744339e-05
6.7422204e-07
3.0046209e-06
5.6325632e-05
5.5404399e-07
2.7024907e-06
5.4133973e-05
4.4916747e-07
2.4259383e-06
5.2152298e-05
3.5972403e-07
2.174536e-06
5.0363747e-05
2.8484514e-07
1.9473718e-06
4.875178e-05
2.2310005e-07
1.7432015e-06
4.7300339e-05
1.7281165e-07
1.5605647e-06
4.5994012e-05
1.3226573e-07
1.3978748e-06
4.4818177e-05
9.9840026e-08
1.2534891e-06
4.3759121e-05
7.4075609e-08
1.1257614e-06
4.2804123e-05
5.3707635e-08
1.0130814e-06
4.1941503e-05
3.767121e-08
9.1390379e-07
4.1160627e-05
2.5096472e-08
8.2676732e-07
4.0451891e-05
1.5294181e-08
7.503039e-07
3.980679e-05
7.5281816e-09
6.8329174e-07
3.9217543e-05
1.6727801e-09
6.2455201e-07
3.8677513e-05
-3.0330673e-09
5.7313081e-07
3.8180739e-05
-6.6486526e-09
5.2807356e-07
3.7722004e-05
-9.3594841e-09
4.8853452e-07
3.7296777e-05
-1.1371774e-08
4.5378928e-07
3.6901112e-05
-1.2818218e-08
4.2319913e-07
3.6531588e-05
-1.3805299e-08
3.962048e-07
3.6185236e-05
-1.4417474e-08
3.7231876e-07
3.5859491e-05
-1.4721847e-08
3.5111779e-07
3.5552132e-05
-1.4772608e-08
3.3223581e-07
3.5261237e-05
-1.4613866e-08
3.153573e-07
3.4985143e-05
-1.4282174e-08
3.0021093e-07
3.472241e-05
-1.3807685e-08
2.8656377e-07
3.4471787e-05
-1.3215873e-08
2.7421632e-07
3.4232185e-05
-1.2528156e-08
2.6299769e-07
3.4002657e-05
-1.1762818e-08
2.5276173e-07
3.3782373e-05
-1.0935236e-08
2.4338337e-07
3.3570606e-05
-1.0058751e-08
2.3475557e-07
3.3366714e-05
-9.1447253e-09
2.2678673e-07
3.3170131e-05
-8.2028457e-09
2.1939831e-07
3.2980356e-05
-7.2412224e-09
2.1252298e-07
3.279694e-05
-6.2668692e-09
2.0610282e-07
3.2619482e-05
-5.2855203e-09
2.0008785e-07
3.2447623e-05
-4.3018097e-09
1.9443481e-07
3.228104e-05
-3.3190559e-09
1.8910585e-07
3.2119438e-05
-2.3383016e-09
1.8406733e-07
3.1962554e-05
-1.3530461e-09
1.7928647e-07
3.1810075e-05
-2.7634624e-10
1.7472767e-07
3.1661878e-05
5.85816e-10
1.7043907e-07
3.1517732e-05
1.435619e-09
1.6637294e-07
3.1377429e-05
2.3038588e-09
1.6248961e-07
3.1240792e-05
3.1586711e-09
1.5877484e-07
3.1107656e-05
3.9970154e-09
1.5521719e-07
3.0977867e-05
4.817207e-09
1.5180545e-07
3.0851284e-05
5.6180097e-09
1.4852966e-07
3.0727774e-05
6.399081e-09
1.4538076e-07
3.0607209e-05
7.1609555e-09
1.4235053e-07
3.0489473e-05
7.9059686e-09
1.394312e-07
3.037445e-05
8.6357741e-09
1.3661578e-07
3.0262049e-05
9.3206811e-09
1.3390397e-07
3.0152163e-05
9.9938315e-09
1.3128564e-07
3.0044697e-05
1.0650401e-08
1.2875514e-07
2.9939564e-05
1.1286723e-08
1.2630826e-07
2.983668e-05
1.1903167e-08
1.2394087e-07
2.9735965e-05
1.2500164e-08
1.2164887e-07
2.9637345e-05
1.307789e-08
1.1942844e-07
2.9540748e-05
1.3636698e-08
1.1727619e-07
2.9446105e-05
1.4177013e-08
1.1518886e-07
2.9353352e-05
1.4699181e-08
1.1316341e-07
2.9262425e-05
1.5203517e-08
1.11197e-07
2.9173268e-05
1.5690463e-08
1.0928707e-07
2.9085822e-05
1.6160356e-08
1.0743107e-07
2.9000035e-05
1.6613574e-08
1.0562665e-07
2.8915855e-05
1.7050385e-08
1.0387154e-07
2.8833233e-05
1.7471087e-08
1.0216363e-07
2.8752123e-05
1.7875926e-08
1.0050081e-07
2.8672479e-05
1.8265089e-08
9.8881112e-08
2.8594259e-05
1.8638542e-08
9.7302499e-08
2.8517424e-05
1.8996206e-08
9.5762955e-08
2.8441934e-05
1.93378e-08
9.4260356e-08
2.8367753e-05
1.9662788e-08
9.2792374e-08
2.8294848e-05
1.9970481e-08
9.1356271e-08
2.8223187e-05
2.0260017e-08
8.9948836e-08
2.8152746e-05
2.0530701e-08
8.8565917e-08
2.8083503e-05
2.0782595e-08
8.7201806e-08
2.8015447e-05
2.1017556e-08
8.5848675e-08
2.7948582e-05
2.1240725e-08
8.4495828e-08
2.7882937e-05
2.1462729e-08
8.3129499e-08
2.7818574e-05
2.1700017e-08
8.1736526e-08
2.7755588e-05
2.1969289e-08
8.0324346e-08
2.7694014e-05
2.2266152e-08
7.9016084e-08
2.7633299e-05
2.2506287e-08
7.8480683e-08
2.7571004e-05
2.2393405e-08
8.0599422e-08
2.0993096e-08
1.0779945e-07
0.00010489986
2.7443379e-07
6.5049155e-06
9.8802772e-05
5.0716636e-07
6.6362236e-06
9.329591e-05
6.5854975e-07
6.1922972e-06
8.8116302e-05
7.2902545e-07
5.9257148e-06
8.3248198e-05
7.4378815e-07