/*--------------------------------*- C++ -*----------------------------------*\
  =========                 |
  \\      /  F ield         | OpenFOAM: The Open Source CFD Toolbox
   \\    /   O peration     | Website:  https://openfoam.org
    \\  /    A nd           | Version:  7
     \\/     M anipulation  |
\*---------------------------------------------------------------------------*/
FoamFile
{
    version     2.0;
    format      ascii;
    class       volVectorField;
    location    "2450/water";
    object      U;
}
// * * * * * * * * * * * * * * * * * * * * * * * * * * * * * * * * * * * * * //

dimensions      [0 1 -1 0 0 0 0];

internalField   nonuniform List<vector> 
54000
(
(0.0090020934 0.00020305973 0.00020444027)
(0.0083186447 0.00023622738 0.00023904411)
(0.0073695241 0.00021363852 0.00021763527)
(0.0063566114 0.00018488016 0.00018965819)
(0.0054486673 0.00015530836 0.00016048633)
(0.0046741594 0.00012529952 0.00013052937)
(0.0040193038 9.7052612e-05 0.00010203017)
(0.0034740067 7.2578999e-05 7.7073287e-05)
(0.0030302461 5.2876126e-05 5.673833e-05)
(0.0026757323 3.8068151e-05 4.1216513e-05)
(0.0023947254 2.7637704e-05 3.0037141e-05)
(0.0021713898 2.0689033e-05 2.2336508e-05)
(0.0019919695 1.6236161e-05 1.7152703e-05)
(0.0018455015 1.3416236e-05 1.3643173e-05)
(0.0017237326 1.1582489e-05 1.1179122e-05)
(0.0016206928 1.0304891e-05 9.3455817e-06)
(0.0015321593 9.3257907e-06 7.8957157e-06)
(0.0014551546 8.5052967e-06 6.6953102e-06)
(0.0013875459 7.7746344e-06 5.6760588e-06)
(0.0013277612 7.1034278e-06 4.8034872e-06)
(0.001274601 6.4798492e-06 4.0581569e-06)
(0.0012271179 5.8999464e-06 3.4261579e-06)
(0.0011845424 5.3625303e-06 2.8950716e-06)
(0.001146235 4.8670218e-06 2.4526298e-06)
(0.0011116558 4.4125994e-06 2.0869765e-06)
(0.0010803434 3.9980131e-06 1.7867454e-06)
(0.0010519002 3.6214601e-06 1.5416128e-06)
(0.0010259819 3.2805939e-06 1.3421851e-06)
(0.001002289 2.9733957e-06 1.1797316e-06)
(0.00098056199 2.6979495e-06 1.0463195e-06)
(0.00096057571 2.4519212e-06 9.3658868e-07)
(0.00094213242 2.2325659e-06 8.4693366e-07)
(0.00092505791 2.0373854e-06 7.7316556e-07)
(0.00090920047 1.8640888e-06 7.1184278e-07)
(0.00089442818 1.7104625e-06 6.6046777e-07)
(0.0008806259 1.574382e-06 6.1707396e-07)
(0.00086769295 1.4538615e-06 5.8005435e-07)
(0.00085554128 1.3470712e-06 5.481148e-07)
(0.00084409387 1.2523507e-06 5.2023935e-07)
(0.00083328322 1.1681994e-06 4.9562832e-07)
(0.00082305015 1.0932624e-06 4.7365332e-07)
(0.00081334267 1.0262299e-06 4.5378345e-07)
(0.00080411486 9.6585919e-07 4.3554495e-07)
(0.00079532615 9.11312e-07 4.1865046e-07)
(0.0007869407 8.6191786e-07 4.0290672e-07)
(0.00077892675 8.1708312e-07 3.8816742e-07)
(0.00077125603 7.7627708e-07 3.7432073e-07)
(0.0007639033 7.3902651e-07 3.6127631e-07)
(0.00075684598 7.049148e-07 3.4896441e-07)
(0.00075006373 6.7357628e-07 3.3733224e-07)
(0.00074353822 6.4469426e-07 3.2633751e-07)
(0.00073725294 6.1802538e-07 3.1581838e-07)
(0.00073119313 5.9334746e-07 3.0574363e-07)
(0.00072534528 5.7041979e-07 2.962113e-07)
(0.00071969687 5.4902493e-07 2.8716679e-07)
(0.00071423652 5.2901439e-07 2.7854371e-07)
(0.00070895385 5.1027369e-07 2.7031104e-07)
(0.00070383928 4.9268668e-07 2.6244901e-07)
(0.00069888397 4.7614521e-07 2.549329e-07)
(0.00069407976 4.6054984e-07 2.4774335e-07)
(0.00068941911 4.4582052e-07 2.4086428e-07)
(0.00068489502 4.3188488e-07 2.3427667e-07)
(0.00068050098 4.1867975e-07 2.2796359e-07)
(0.00067623091 4.0614732e-07 2.2191245e-07)
(0.00067207915 3.9423551e-07 2.1610615e-07)
(0.00066804042 3.8289727e-07 2.1053171e-07)
(0.00066410976 3.7209456e-07 2.0517755e-07)
(0.00066028251 3.6179477e-07 2.0003255e-07)
(0.00065655429 3.5196328e-07 1.9508259e-07)
(0.00065292099 3.4256928e-07 1.90318e-07)
(0.00064937872 3.3358668e-07 1.8572907e-07)
(0.00064592384 3.249878e-07 1.8130565e-07)
(0.00064255288 3.1675248e-07 1.7704028e-07)
(0.00063926261 3.0885676e-07 1.7292537e-07)
(0.00063604992 3.0128244e-07 1.6895081e-07)
(0.00063291191 2.9401261e-07 1.6511152e-07)
(0.00062984582 2.8703112e-07 1.6139819e-07)
(0.00062684904 2.8032192e-07 1.5780376e-07)
(0.00062391907 2.7387119e-07 1.5432003e-07)
(0.00062105358 2.6766567e-07 1.5094269e-07)
(0.00061825035 2.6169347e-07 1.4766127e-07)
(0.00061550726 2.5594482e-07 1.4447035e-07)
(0.00061282235 2.5040684e-07 1.4135938e-07)
(0.00061019373 2.450689e-07 1.3832391e-07)
(0.00060761964 2.3991944e-07 1.3535558e-07)
(0.00060509845 2.3494556e-07 1.3244815e-07)
(0.00060262862 2.3013497e-07 1.2959873e-07)
(0.00060020873 2.2547005e-07 1.2680407e-07)
(0.00059783744 2.2093239e-07 1.2407543e-07)
(0.00059551348 2.1649904e-07 1.2143413e-07)
(0.00059323554 2.121495e-07 1.1892909e-07)
(0.00059100214 2.0787283e-07 1.1666255e-07)
(0.00058881114 2.0369133e-07 1.1483029e-07)
(0.00058665898 1.9973226e-07 1.1382081e-07)
(0.00058453869 1.9638547e-07 1.1441051e-07)
(0.00058243501 1.948735e-07 1.1837309e-07)
(0.00058031396 1.99774e-07 1.3094488e-07)
(0.0005781161 2.2258463e-07 1.6397625e-07)
(0.00057566369 1.9706868e-07 1.5080579e-07)
(0.000569062 7.8896441e-07 7.5322476e-07)
(0.0095316863 0.0003313754 0.00022336697)
(0.0092716504 0.00041105942 0.00027052342)
(0.0087756651 0.00040317187 0.00026060062)
(0.0081527518 0.00038218754 0.00024252081)
(0.0075302151 0.00035309575 0.00022101124)
(0.0069425889 0.00031541062 0.00019648834)
(0.006391209 0.00027309198 0.00017102969)
(0.0058791845 0.00023030694 0.00014652546)
(0.0054120202 0.00019001855 0.00012410998)
(0.0049926512 0.00015423459 0.00010436627)
(0.004620592 0.00012408347 8.7479017e-05)
(0.0042931332 9.9809402e-05 7.3327495e-05)
(0.0040063965 8.0956424e-05 6.1601503e-05)
(0.0037559538 6.667221e-05 5.1918795e-05)
(0.0035372541 5.5985799e-05 4.3907444e-05)
(0.003345947 4.7992056e-05 3.7246645e-05)
(0.0031780884 4.1941709e-05 3.167753e-05)
(0.0030302311 3.7262447e-05 2.699792e-05)
(0.0028994324 3.3540997e-05 2.3051138e-05)
(0.0027832152 3.0490244e-05 1.9714593e-05)
(0.0026795075 2.7915734e-05 1.6890544e-05)
(0.0025865783 2.5687841e-05 1.4499382e-05)
(0.002502978 2.3720892e-05 1.2475015e-05)
(0.0024274871 2.195843e-05 1.0761725e-05)
(0.0023590736 2.0362993e-05 9.3122317e-06)
(0.0022968589 1.8909454e-05 8.0861286e-06)
(0.0022400906 1.7580768e-05 7.0489625e-06)
(0.0021881216 1.6364898e-05 6.1714967e-06)
(0.0021403932 1.5251963e-05 5.4283139e-06)
(0.0020964214 1.4233849e-05 4.7973494e-06)
(0.0020557868 1.330304e-05 4.2604817e-06)
(0.0020181236 1.2451985e-05 3.8027029e-06)
(0.0019831119 1.1673907e-05 3.4109606e-06)
(0.0019504718 1.0962754e-05 3.0744212e-06)
(0.0019199589 1.0312854e-05 2.78426e-06)
(0.0018913593 9.7188332e-06 2.5331802e-06)
(0.0018644851 9.175645e-06 2.3150745e-06)
(0.0018391716 8.6785729e-06 2.1248317e-06)
(0.0018152735 8.223244e-06 1.9581835e-06)
(0.0017926629 7.805621e-06 1.8115671e-06)
(0.0017712268 7.4219983e-06 1.6820106e-06)
(0.001750865 7.0689373e-06 1.5670704e-06)
(0.0017314886 6.7432694e-06 1.4647429e-06)
(0.0017130186 6.4422738e-06 1.3732758e-06)
(0.0016953848 6.1635583e-06 1.2911598e-06)
(0.0016785241 5.9049784e-06 1.2171201e-06)
(0.00166238 5.66461e-06 1.1500839e-06)
(0.0016469019 5.4407254e-06 1.0891484e-06)
(0.001632044 5.2317771e-06 1.033553e-06)
(0.0016177649 5.0363855e-06 9.8265443e-07)
(0.0016040271 4.853322e-06 9.3589381e-07)
(0.0015907965 4.6815615e-06 8.927371e-07)
(0.0015780424 4.5201562e-06 8.5278711e-07)
(0.0015657364 4.3681542e-06 8.1577043e-07)
(0.0015538526 4.224682e-06 7.813855e-07)
(0.0015423672 4.0890597e-06 7.4934611e-07)
(0.0015312583 3.9607287e-06 7.1941245e-07)
(0.0015205058 3.8391512e-06 6.9138713e-07)
(0.0015100909 3.7238133e-06 6.6509451e-07)
(0.0014999963 3.6142432e-06 6.4038056e-07)
(0.0014902061 3.5100299e-06 6.17108e-07)
(0.0014807053 3.4107986e-06 5.9516064e-07)
(0.00147148 3.3162125e-06 5.7442671e-07)
(0.0014625175 3.2259603e-06 5.5481472e-07)
(0.0014538055 3.1397554e-06 5.3623557e-07)
(0.0014453328 3.0573349e-06 5.1861212e-07)
(0.0014370889 2.9784698e-06 5.0187775e-07)
(0.0014290637 2.9029593e-06 4.8596818e-07)
(0.001421248 2.8306038e-06 4.7082342e-07)
(0.001413633 2.7612184e-06 4.5639249e-07)
(0.0014062103 2.6946339e-06 4.4262821e-07)
(0.0013989723 2.6306909e-06 4.2948797e-07)
(0.0013919116 2.5692463e-06 4.1693036e-07)
(0.0013850211 2.5101623e-06 4.0492108e-07)
(0.0013782945 2.4533173e-06 3.9342491e-07)
(0.0013717253 2.3985939e-06 3.8241201e-07)
(0.0013653078 2.3458841e-06 3.7185189e-07)
(0.0013590364 2.2950863e-06 3.6171739e-07)
(0.0013529058 2.2461039e-06 3.5198435e-07)
(0.001346911 2.1988514e-06 3.4262604e-07)
(0.0013410472 2.1532416e-06 3.3362017e-07)
(0.0013353099 2.1091966e-06 3.2494594e-07)
(0.001329695 2.0666371e-06 3.1657802e-07)
(0.0013241983 2.0254882e-06 3.0850061e-07)
(0.001318816 1.9856735e-06 3.0069054e-07)
(0.0013135446 1.9471132e-06 2.9313068e-07)
(0.0013083808 1.9097266e-06 2.8580497e-07)
(0.0013033213 1.8734236e-06 2.78702e-07)
(0.0012983632 1.8381157e-06 2.7181568e-07)
(0.0012935038 1.8037145e-06 2.6515275e-07)
(0.0012887402 1.7701703e-06 2.5874296e-07)
(0.0012840698 1.7375341e-06 2.5265041e-07)
(0.0012794889 1.7061224e-06 2.4701357e-07)
(0.0012749925 1.6769105e-06 2.4211336e-07)
(0.001270572 1.652469e-06 2.3851732e-07)
(0.0012662098 1.6393331e-06 2.3765972e-07)
(0.0012618709 1.6545761e-06 2.4458311e-07)
(0.0012574959 1.7463713e-06 2.7712462e-07)
(0.0012529717 2.0376702e-06 2.652638e-07)
(0.0012433358 2.9514826e-06 1.3525326e-06)
(0.0095221617 0.00021179965 0.00022180581)
(0.009269783 0.00029872516 0.00026628967)
(0.0088657772 0.00031669844 0.00025526743)
(0.0083755729 0.000317438 0.00023864265)
(0.0078888426 0.00030841043 0.00021987851)
(0.0074276349 0.00028848207 0.00019850457)
(0.006988258 0.0002604839 0.00017617916)
(0.0065698164 0.00022855168 0.00015444521)
(0.0061756011 0.00019596771 0.00013413534)
(0.0058087146 0.00016504408 0.00011567593)
(0.0054706295 0.00013728621 9.9270839e-05)
(0.0051615551 0.00011345265 8.4947831e-05)
(0.0048808654 9.3684507e-05 7.2600737e-05)
(0.0046272998 7.7712987e-05 6.2044901e-05)
(0.0043991196 6.5057024e-05 5.3064542e-05)
(0.0041942886 5.5163887e-05 4.5443629e-05)
(0.0040106431 4.7493346e-05 3.8982754e-05)
(0.0038460219 4.1561377e-05 3.350638e-05)
(0.0036983537 3.6958194e-05 2.8864075e-05)
(0.0035657105 3.3351174e-05 2.4928487e-05)
(0.0034463343 3.0479502e-05 2.1592136e-05)
(0.003338646 2.8144767e-05 1.8764099e-05)
(0.003241243 2.6200154e-05 1.6367139e-05)
(0.0031528887 2.4539753e-05 1.4335369e-05)
(0.0030724986 2.3088868e-05 1.2612489e-05)
(0.0029991252 2.1796112e-05 1.1150134e-05)
(0.0029319421 2.0626904e-05 9.9064817e-06)
(0.0028702292 1.9558161e-05 8.8458156e-06)
(0.0028133589 1.8574036e-05 7.9385377e-06)
(0.0027607855 1.7663621e-05 7.1598233e-06)
(0.0027120345 1.6818831e-05 6.4890361e-06)
(0.0026666927 1.6033065e-05 5.9090206e-06)
(0.0026243991 1.5301095e-05 5.4052723e-06)
(0.0025848382 1.4618819e-05 4.965652e-06)
(0.0025477347 1.3982714e-05 4.5801145e-06)
(0.0025128472 1.3389544e-05 4.2403271e-06)
(0.002479964 1.2836281e-05 3.9393564e-06)
(0.0024488994 1.2320059e-05 3.6714254e-06)
(0.0024194896 1.1838145e-05 3.4317258e-06)
(0.00239159 1.138794e-05 3.2162506e-06)
(0.0023650729 1.0966986e-05 3.0216602e-06)
(0.0023398248 1.0573e-05 2.8451739e-06)
(0.0023157449 1.0203876e-05 2.6844744e-06)
(0.0022927433 9.8575809e-06 2.5375944e-06)
(0.0022707398 9.5322168e-06 2.4028639e-06)
(0.002249662 9.2260292e-06 2.2788659e-06)
(0.0022294453 8.937419e-06 2.1643999e-06)
(0.0022100312 8.6649289e-06 2.0584384e-06)
(0.0021913666 8.4072371e-06 1.9601018e-06)
(0.0021734038 8.1631541e-06 1.8686323e-06)
(0.0021560989 7.9316197e-06 1.7833676e-06)
(0.0021394122 7.711722e-06 1.7037082e-06)
(0.0021233074 7.5026013e-06 1.6291518e-06)
(0.0021077512 7.303379e-06 1.559283e-06)
(0.0020927129 7.1131864e-06 1.49372e-06)
(0.0020781645 6.9314152e-06 1.432105e-06)
(0.0020640799 6.7576052e-06 1.3741143e-06)
(0.0020504351 6.5912621e-06 1.3194619e-06)
(0.0020372075 6.4318799e-06 1.267895e-06)
(0.0020243766 6.2790065e-06 1.2191873e-06)
(0.0020119231 6.1322415e-06 1.1731315e-06)
(0.001999829 5.9912204e-06 1.1295431e-06)
(0.0019880776 5.8556118e-06 1.0882501e-06)
(0.0019766531 5.7251051e-06 1.0490952e-06)
(0.001965541 5.5994073e-06 1.0119375e-06)
(0.0019547276 5.4782453e-06 9.7664643e-07)
(0.0019441999 5.361389e-06 9.4309979e-07)
(0.0019339458 5.248649e-06 9.1118932e-07)
(0.0019239539 5.1398194e-06 8.8080827e-07)
(0.0019142135 5.034703e-06 8.5186011e-07)
(0.0019047144 4.933119e-06 8.2425951e-07)
(0.001895447 4.8349005e-06 7.9792485e-07)
(0.0018864023 4.7398906e-06 7.7278022e-07)
(0.0018775718 4.6479429e-06 7.4875709e-07)
(0.0018689473 4.5589221e-06 7.2578767e-07)
(0.0018605211 4.4726987e-06 7.0381408e-07)
(0.0018522861 4.389153e-06 6.8277856e-07)
(0.0018442353 4.3081681e-06 6.6262665e-07)
(0.0018363621 4.2296372e-06 6.4330865e-07)
(0.0018286604 4.1534588e-06 6.2477829e-07)
(0.0018211241 4.0795293e-06 6.0698858e-07)
(0.0018137478 4.007754e-06 5.899001e-07)
(0.0018065261 3.9380363e-06 5.7347319e-07)
(0.001799454 3.8702801e-06 5.5766767e-07)
(0.0017925266 3.8043827e-06 5.4244653e-07)
(0.0017857396 3.7402364e-06 5.2777754e-07)
(0.0017790885 3.6777264e-06 5.1362961e-07)
(0.0017725695 3.6167264e-06 4.9997002e-07)
(0.0017661787 3.5571082e-06 4.8677386e-07)
(0.0017599128 3.4987607e-06 4.7402479e-07)
(0.0017537682 3.4416533e-06 4.6170988e-07)
(0.0017477416 3.3859643e-06 4.498351e-07)
(0.0017418294 3.332383e-06 4.3844213e-07)
(0.0017360272 3.2827918e-06 4.2764538e-07)
(0.0017303281 3.2417775e-06 4.1776878e-07)
(0.0017247202 3.2200401e-06 4.0999109e-07)
(0.001719183 3.2421558e-06 4.0985036e-07)
(0.001713691 3.3643437e-06 4.411444e-07)
(0.0017081999 3.7072182e-06 4.735338e-07)
(0.0016974804 4.4611203e-06 1.8634998e-06)
(0.0095012861 0.00013951169 0.00022248511)
(0.0092133349 0.00022408324 0.00026709763)
(0.0088018509 0.0002570094 0.00025529581)
(0.0083306071 0.00026690691 0.0002382081)
(0.0078754299 0.00026502158 0.00021939836)
(0.0074527063 0.0002529565 0.00019823245)
(0.0070564396 0.00023295893 0.00017634609)
(0.0066827538 0.00020836345 0.0001552305)
(0.006331873 0.00018203353 0.00013558338)
(0.0060047052 0.00015603739 0.00011769036)
(0.0057015056 0.00013180401 0.00010166909)
(0.0054220192 0.00011020725 8.7524315e-05)
(0.0051656909 9.16319e-05 7.5171987e-05)
(0.0049316845 7.6091187e-05 6.4472618e-05)
(0.0047188814 6.3363143e-05 5.5261149e-05)
(0.0045259349 5.3104941e-05 4.736682e-05)
(0.0043513547 4.4932757e-05 4.0624899e-05)
(0.0041935865 3.847136e-05 3.4883031e-05)
(0.0040510752 3.3381246e-05 3.0003995e-05)
(0.0039223115 2.9370509e-05 2.5866182e-05)
(0.0038058643 2.6197262e-05 2.2362868e-05)
(0.0037004012 2.366673e-05 1.9400963e-05)
(0.0036047 2.1625758e-05 1.6899611e-05)
(0.0035176529 1.9956327e-05 1.4788824e-05)
(0.0034382652 1.8569049e-05 1.3008104e-05)
(0.0033656513 1.7397362e-05 1.1504744e-05)
(0.0032990266 1.6392002e-05 1.0233524e-05)
(0.0032376995 1.551624e-05 9.156535e-06)
(0.0031810636 1.4743887e-05 8.2421109e-06)
(0.0031285885 1.405615e-05 7.4635742e-06)
(0.0030798115 1.3438893e-05 6.7985194e-06)
(0.0030343294 1.288115e-05 6.2282219e-06)
(0.0029917905 1.2374495e-05 5.7369825e-06)
(0.0029518882 1.191242e-05 5.3116656e-06)
(0.0029143553 1.1489693e-05 4.9413537e-06)
(0.0028789586 1.1101929e-05 4.617001e-06)
(0.0028454946 1.0745379e-05 4.3311221e-06)
(0.0028137847 1.0416775e-05 4.0775285e-06)
(0.0027836727 1.0113219e-05 3.8511084e-06)
(0.0027550209 9.8321223e-06 3.647645e-06)
(0.0027277081 9.5711615e-06 3.4636644e-06)
(0.002701627 9.3282515e-06 3.2963008e-06)
(0.0026766823 9.1015176e-06 3.1431908e-06)
(0.0026527895 8.8892443e-06 3.002382e-06)
(0.0026298729 8.6898925e-06 2.8722566e-06)
(0.0026078647 8.5020899e-06 2.7514711e-06)
(0.002586704 8.3246167e-06 2.6389104e-06)
(0.0025663358 8.1563964e-06 2.5336424e-06)
(0.0025467102 7.9964767e-06 2.4348849e-06)
(0.002527782 7.8440261e-06 2.3419793e-06)
(0.0025095101 7.6983355e-06 2.2543617e-06)
(0.0024918566 7.5588075e-06 2.1715443e-06)
(0.0024747871 7.4248974e-06 2.0931124e-06)
(0.0024582699 7.2960202e-06 2.01872e-06)
(0.0024422756 7.1714385e-06 1.9480701e-06)
(0.0024267775 7.0509278e-06 1.8808995e-06)
(0.0024117506 6.9343772e-06 1.8169535e-06)
(0.0023971715 6.8214905e-06 1.756003e-06)
(0.0023830185 6.7119576e-06 1.6978531e-06)
(0.0023692714 6.6055388e-06 1.6423289e-06)
(0.0023559116 6.5020454e-06 1.5892724e-06)
(0.0023429214 6.4013082e-06 1.5385385e-06)
(0.0023302844 6.3031812e-06 1.4899939e-06)
(0.0023179851 6.207525e-06 1.4435161e-06)
(0.0023060089 6.1142025e-06 1.3989928e-06)
(0.0022943424 6.0230685e-06 1.3563254e-06)
(0.0022829727 5.9340582e-06 1.3154157e-06)
(0.0022718877 5.8471294e-06 1.2761701e-06)
(0.002261076 5.7622045e-06 1.2385018e-06)
(0.0022505267 5.6791992e-06 1.2023308e-06)
(0.0022402296 5.5980423e-06 1.1675831e-06)
(0.0022301752 5.5186728e-06 1.1341879e-06)
(0.0022203542 5.4410304e-06 1.1020809e-06)
(0.002210758 5.3650624e-06 1.0711995e-06)
(0.0022013784 5.290718e-06 1.0414847e-06)
(0.0021922076 5.2179475e-06 1.0128821e-06)
(0.0021832381 5.1467095e-06 9.8533861e-07)
(0.0021744628 5.0769564e-06 9.5880357e-07)
(0.0021658752 5.0086499e-06 9.3323085e-07)
(0.0021574688 4.9417453e-06 9.0857459e-07)
(0.0021492375 4.8761978e-06 8.8479134e-07)
(0.0021411756 4.8119657e-06 8.6183901e-07)
(0.0021332776 4.7489978e-06 8.3967879e-07)
(0.0021255383 4.6872404e-06 8.1827097e-07)
(0.0021179527 4.6266226e-06 7.9757674e-07)
(0.0021105161 4.567068e-06 7.7756054e-07)
(0.0021032242 4.5084814e-06 7.5818473e-07)
(0.0020960727 4.4507563e-06 7.3941117e-07)
(0.0020890577 4.3937757e-06 7.212021e-07)
(0.0020821756 4.3374554e-06 7.0352094e-07)
(0.002075423 4.28181e-06 6.8632142e-07)
(0.0020687967 4.2271331e-06 6.6956168e-07)
(0.0020622937 4.1743542e-06 6.5320265e-07)
(0.002055911 4.1258146e-06 6.3726225e-07)
(0.0020496453 4.0868282e-06 6.2198505e-07)
(0.0020434926 4.0687767e-06 6.0874691e-07)
(0.0020374483 4.0948767e-06 6.0452168e-07)
(0.0020315149 4.2094252e-06 6.3987807e-07)
(0.0020256647 4.4797474e-06 7.1688428e-07)
(0.0020144539 4.9057759e-06 2.2695251e-06)
(0.0094902877 9.6726607e-05 0.00022289229)
(0.00917661 0.00016632333 0.00026788105)
(0.0087449456 0.00019969046 0.00025550648)
(0.0082664657 0.00021101604 0.00023762681)
(0.00781215 0.0002109939 0.0002181603)
(0.0073950862 0.00020282359 0.00019646328)
(0.0070087986 0.00018827265 0.00017418493)
(0.006648835 0.00016968865 0.0001528463)
(0.0063142174 0.00014929331 0.00013312182)
(0.0060045996 0.00012875288 0.0001152379)
(0.0057192201 0.00010923292 9.9256791e-05)
(0.0054570682 9.1490072e-05 8.514891e-05)
(0.0052170782 7.59234e-05 7.2816212e-05)
(0.0049981259 6.2643332e-05 6.2119133e-05)
(0.0047989841 5.1561152e-05 5.2900047e-05)
(0.0046183234 4.2472278e-05 4.4997976e-05)
(0.0044547458 3.5118725e-05 3.8256897e-05)
(0.0043068267 2.9230543e-05 3.2530442e-05)
(0.0041731526 2.4550834e-05 2.7684339e-05)
(0.0040523509 2.084911e-05 2.3597362e-05)
(0.0039431142 1.7926913e-05 2.0161345e-05)
(0.0038442168 1.5618599e-05 1.7280682e-05)
(0.0037545253 1.3789365e-05 1.487153e-05)
(0.0036730042 1.2331758e-05 1.2860863e-05)
(0.0035987172 1.1161539e-05 1.1185211e-05)
(0.0035308246 1.0213367e-05 9.7889736e-06)
(0.0034685786 9.4380822e-06 8.6250712e-06)
(0.0034113173 8.7971278e-06 7.6543147e-06)
(0.0033584589 8.2627199e-06 6.8439393e-06)
(0.0033094933 7.8140803e-06 6.1664543e-06)
(0.0032639753 7.4348228e-06 5.5988447e-06)
(0.0032215172 7.1121289e-06 5.1219264e-06)
(0.0031817817 6.8360958e-06 4.7197261e-06)
(0.0031444758 6.5990219e-06 4.3789728e-06)
(0.0031093448 6.3947814e-06 4.0886803e-06)
(0.0030761678 6.218406e-06 3.8397977e-06)
(0.0030447526 6.0657971e-06 3.6248786e-06)
(0.003014932 5.9335287e-06 3.4378183e-06)
(0.0029865602 5.8186987e-06 3.2736183e-06)
(0.0029595097 5.718821e-06 3.1282043e-06)
(0.002933669 5.6317519e-06 2.9982619e-06)
(0.0029089401 5.5556288e-06 2.8810972e-06)
(0.0028852364 5.4888253e-06 2.7745336e-06)
(0.0028624815 5.4299135e-06 2.6768098e-06)
(0.0028406075 5.377643e-06 2.586505e-06)
(0.0028195538 5.3309247e-06 2.5024721e-06)
(0.0027992664 5.2888091e-06 2.4237894e-06)
(0.0027796963 5.2504822e-06 2.3497111e-06)
(0.0027607998 5.2152426e-06 2.2796382e-06)
(0.002742537 5.1824975e-06 2.2130853e-06)
(0.0027248717 5.1517649e-06 2.149655e-06)
(0.0027077708 5.122666e-06 2.0890222e-06)
(0.002691204 5.0948937e-06 2.0309202e-06)
(0.0026751435 5.068085e-06 1.975136e-06)
(0.0026595636 5.0410651e-06 1.9215391e-06)
(0.0026444411 5.0142593e-06 1.8699669e-06)
(0.002629754 4.9880184e-06 1.8202517e-06)
(0.0026154815 4.9620738e-06 1.7722792e-06)
(0.0026016045 4.9361437e-06 1.7259611e-06)
(0.0025881054 4.9100857e-06 1.6812147e-06)
(0.0025749674 4.8838342e-06 1.6379662e-06)
(0.002562175 4.8573398e-06 1.5961467e-06)
(0.0025497136 4.8305793e-06 1.5556923e-06)
(0.0025375693 4.8035388e-06 1.5165487e-06)
(0.0025257292 4.7761755e-06 1.4786606e-06)
(0.002514181 4.7483835e-06 1.4419855e-06)
(0.0025029134 4.7202763e-06 1.4064829e-06)
(0.0024919154 4.6919143e-06 1.3721025e-06)
(0.0024811765 4.6632898e-06 1.3387971e-06)
(0.002470687 4.634402e-06 1.3065284e-06)
(0.0024604377 4.6052679e-06 1.2752603e-06)
(0.0024504197 4.5759092e-06 1.2449532e-06)
(0.0024406247 4.5463453e-06 1.2155763e-06)
(0.0024310448 4.5166002e-06 1.1870938e-06)
(0.0024216723 4.4866956e-06 1.1594726e-06)
(0.0024125001 4.4566502e-06 1.1326845e-06)
(0.0024035213 4.4264882e-06 1.1066977e-06)
(0.0023947295 4.3962275e-06 1.0814834e-06)
(0.0023861184 4.3658902e-06 1.0570131e-06)
(0.0023776821 4.3354881e-06 1.0332608e-06)
(0.0023694149 4.3050328e-06 1.0101966e-06)
(0.0023613115 4.2745349e-06 9.8779578e-07)
(0.0023533667 4.2439928e-06 9.6603078e-07)
(0.0023455757 4.2133962e-06 9.4487369e-07)
(0.0023379338 4.182721e-06 9.242983e-07)
(0.0023304365 4.1519265e-06 9.0427617e-07)
(0.0023230798 4.1209536e-06 8.8477254e-07)
(0.0023158598 4.0897257e-06 8.6575254e-07)
(0.0023087726 4.0581565e-06 8.4717264e-07)
(0.002301815 4.026192e-06 8.2898027e-07)
(0.0022949838 3.9938772e-06 8.111072e-07)
(0.0022882766 3.9615303e-06 7.934626e-07)
(0.002281691 3.9300773e-06 7.7594295e-07)
(0.0022752261 3.901691e-06 7.584775e-07)
(0.002268882 3.8809384e-06 7.412471e-07)
(0.0022626608 3.8766465e-06 7.2572685e-07)
(0.0022565686 3.9043026e-06 7.1957911e-07)
(0.0022506189 3.9866544e-06 7.5579892e-07)
(0.0022447715 4.1390994e-06 8.4931665e-07)
(0.002233564 4.2832245e-06 2.4122113e-06)
(0.0094843561 6.6886586e-05 0.00022303624)
(0.0091549219 0.00011904886 0.00026838771)
(0.0087072816 0.00014772497 0.00025588053)
(0.0082191888 0.00015892952 0.00023765677)
(0.0077602858 0.00016026049 0.00021787143)
(0.0073412804 0.00015505102 0.00019586613)
(0.0069552494 0.00014481701 0.00017327438)
(0.0065978366 0.00013121474 0.00015165024)
(0.0062677954 0.00011592881 0.00013169211)
(0.0059642872 0.00010028521 0.0001136244)
(0.0056860598 8.5214432e-05 9.7497522e-05)
(0.0054316726 7.1330408e-05 8.3272195e-05)
(0.0051997008 5.8984299e-05 7.0844884e-05)
(0.0049887459 4.8311754e-05 6.0073373e-05)
(0.0047973943 3.9291582e-05 5.0798891e-05)
(0.0046242055 3.1804354e-05 4.2859902e-05)
(0.0044677269 2.5679086e-05 3.6099807e-05)
(0.0043265179 2.0725785e-05 3.0371291e-05)
(0.0041991724 1.6756343e-05 2.5538703e-05)
(0.004084339 1.3596838e-05 2.1479083e-05)
(0.0039807371 1.1093753e-05 1.8082323e-05)
(0.0038871692 9.1161632e-06 1.525079e-05)
(0.0038025288 7.5553795e-06 1.2898648e-05)
(0.003725804 6.3231343e-06 1.0950987e-05)
(0.0036560786 5.3488191e-06 9.3426793e-06)
(0.0035925304 4.5751807e-06 8.0166135e-06)
(0.0035344253 3.9621009e-06 6.9239487e-06)
(0.0034811131 3.4726287e-06 6.0250736e-06)
(0.0034320221 3.0815195e-06 5.2862624e-06)
(0.0033866501 2.7702762e-06 4.6792109e-06)
(0.0033445586 2.5236733e-06 4.1805214e-06)
(0.0033053662 2.3295853e-06 3.7707518e-06)
(0.0032687419 2.1784971e-06 3.4337447e-06)
(0.0032343982 2.0629054e-06 3.1561113e-06)
(0.0032020863 1.9768097e-06 2.9267975e-06)
(0.0031715907 1.9153187e-06 2.7367044e-06)
(0.0031427248 1.8743812e-06 2.578356e-06)
(0.0031153267 1.8506058e-06 2.4456286e-06)
(0.0030892563 1.8411264e-06 2.3335232e-06)
(0.0030643915 1.8434997e-06 2.2379663e-06)
(0.003040626 1.8556459e-06 2.1556635e-06)
(0.0030178671 1.8757821e-06 2.0839519e-06)
(0.0029960335 1.9023818e-06 2.0206947e-06)
(0.0029750538 1.934135e-06 1.9641819e-06)
(0.0029548649 1.9699148e-06 1.9130525e-06)
(0.0029354109 2.0087629e-06 1.8662274e-06)
(0.0029166424 2.0498587e-06 1.8228522e-06)
(0.0028985148 2.0925102e-06 1.7822572e-06)
(0.0028809885 2.1361386e-06 1.7439146e-06)
(0.0028640277 2.180271e-06 1.7074091e-06)
(0.0028475999 2.2245505e-06 1.6724149e-06)
(0.0028316758 2.2687586e-06 1.6386554e-06)
(0.0028162284 2.3128921e-06 1.6058716e-06)
(0.0028012324 2.3570787e-06 1.5738227e-06)
(0.0027866658 2.3978715e-06 1.5431895e-06)
(0.0027725089 2.4362358e-06 1.513687e-06)
(0.0027587418 2.4734393e-06 1.4848882e-06)
(0.002745346 2.509536e-06 1.4567014e-06)
(0.002732305 2.5443526e-06 1.4291164e-06)
(0.0027196032 2.5777739e-06 1.4021115e-06)
(0.0027072261 2.6097262e-06 1.3756639e-06)
(0.0026951602 2.640166e-06 1.3497559e-06)
(0.0026833928 2.6690871e-06 1.3243752e-06)
(0.0026719116 2.6965039e-06 1.2995097e-06)
(0.0026607054 2.7223727e-06 1.2751524e-06)
(0.0026497635 2.746356e-06 1.2513126e-06)
(0.002639076 2.7689093e-06 1.2279783e-06)
(0.0026286333 2.790146e-06 1.2051289e-06)
(0.0026184262 2.8099928e-06 1.1827604e-06)
(0.0026084461 2.8284312e-06 1.1608703e-06)
(0.0025986849 2.8454931e-06 1.1394502e-06)
(0.0025891348 2.8612185e-06 1.1184911e-06)
(0.0025797885 2.8756488e-06 1.0979871e-06)
(0.002570639 2.8888295e-06 1.0779293e-06)
(0.0025616795 2.9008059e-06 1.0583093e-06)
(0.0025529038 2.9116186e-06 1.0391182e-06)
(0.0025443058 2.9213139e-06 1.0203487e-06)
(0.0025358796 2.9299291e-06 1.0019902e-06)
(0.0025276198 2.9375069e-06 9.8403216e-07)
(0.002519521 2.9440802e-06 9.6646582e-07)
(0.0025115783 2.9496805e-06 9.4927947e-07)
(0.0025037869 2.9543369e-06 9.3246149e-07)
(0.0024961421 2.9580679e-06 9.1599997e-07)
(0.0024886396 2.9608797e-06 8.9987946e-07)
(0.0024812752 2.9627718e-06 8.8408519e-07)
(0.002474045 2.9637206e-06 8.6859433e-07)
(0.0024669452 2.9636861e-06 8.53382e-07)
(0.0024599723 2.9626122e-06 8.3841281e-07)
(0.0024531231 2.9604299e-06 8.2364268e-07)
(0.0024463945 2.9570968e-06 8.0900312e-07)
(0.0024397839 2.952652e-06 7.9439818e-07)
(0.0024332894 2.9473514e-06 7.7969395e-07)
(0.0024269099 2.941913e-06 7.6470957e-07)
(0.0024206457 2.9379214e-06 7.492602e-07)
(0.0024144993 2.9384178e-06 7.3336506e-07)
(0.0024084767 2.9484944e-06 7.1826417e-07)
(0.0024025877 2.9751237e-06 7.1113312e-07)
(0.002396846 3.0234608e-06 7.4331385e-07)
(0.0023911945 3.0808298e-06 8.3046538e-07)
(0.0023803644 3.0574254e-06 2.2999439e-06)
(0.0094810492 4.4090136e-05 0.00022308885)
(0.0091422796 7.9975483e-05 0.00026874495)
(0.0086839084 0.00010160921 0.00025628771)
(0.0081880903 0.00011101591 0.00023793456)
(0.0077246858 0.00011275117 0.00021798622)
(0.0073029895 0.00010953687 0.00019578738)
(0.0069155191 0.00010266029 0.00017296032)
(0.0065579578 9.3267236e-05 0.0001510852)
(0.006229001 8.2539594e-05 0.00013089045)
(0.005927585 7.1446833e-05 0.00011261412)
(0.0056522063 6.0673359e-05 9.6309239e-05)
(0.0054012005 5.0670808e-05 8.1936268e-05)
(0.0051729477 4.1706609e-05 6.9390832e-05)
(0.004965887 3.3898116e-05 5.8529097e-05)
(0.0047784814 2.7249954e-05 4.9189878e-05)
(0.0046092054 2.1693074e-05 4.1208774e-05)
(0.0044565535 1.7117437e-05 3.4426144e-05)
(0.0043190553 1.3395518e-05 2.8691658e-05)
(0.0041952917 1.0397812e-05 2.3866804e-05)
(0.0040839086 8.0023319e-06 1.9826011e-05)
(0.0039836292 6.0997702e-06 1.6456861e-05)
(0.0038932634 4.5956621e-06 1.3659716e-05)
(0.0038117126 3.4106731e-06 1.1347013e-05)
(0.0037379734 2.4799293e-06 9.4422918e-06)
(0.0036711359 1.7515117e-06 7.8790897e-06)
(0.0036103859 1.1749051e-06 6.6010325e-06)
(0.0035549935 7.2234235e-07 5.5561196e-06)
(0.0035043108 3.7342735e-07 4.7060695e-06)
(0.0034577717 1.0569729e-07 4.0163451e-06)
(0.0034148763 -9.9088493e-08 3.4574143e-06)
(0.0033751872 -2.5333476e-07 3.005496e-06)
(0.0033383243 -3.6639942e-07 2.6409746e-06)
(0.0033039576 -4.4577932e-07 2.3475731e-06)
(0.0032718009 -4.9748406e-07 2.1118269e-06)
(0.0032416065 -5.2634484e-07 1.922643e-06)
(0.0032131599 -5.3630842e-07 1.7709162e-06)
(0.0031862758 -5.3063826e-07 1.6492033e-06)
(0.0031607936 -5.1206266e-07 1.5514421e-06)
(0.0031365743 -4.828713e-07 1.4727107e-06)
(0.0031134976 -4.4500707e-07 1.4090333e-06)
(0.0030914586 -4.001107e-07 1.3572052e-06)
(0.0030703663 -3.4957962e-07 1.3146569e-06)
(0.0030501409 -2.9459438e-07 1.2793314e-06)
(0.0030307129 -2.3616755e-07 1.2495916e-06)
(0.0030120207 -1.7516549e-07 1.2241403e-06)
(0.0029940105 -1.1232194e-07 1.2019524e-06)
(0.0029766343 -4.8267562e-08 1.1822231e-06)
(0.0029598495 1.6450448e-08 1.1643218e-06)
(0.0029436181 8.1356895e-08 1.1477527e-06)
(0.002927906 1.4602505e-07 1.1321253e-06)
(0.0029126825 2.1005883e-07 1.1171183e-06)
(0.0028979201 2.7304887e-07 1.1024389e-06)
(0.0028835935 3.3454131e-07 1.0876603e-06)
(0.0028696773 3.9432335e-07 1.0722032e-06)
(0.0028561514 4.5704932e-07 1.0590095e-06)
(0.0028429997 5.2060146e-07 1.0472577e-06)
(0.0028302035 5.8225378e-07 1.0356084e-06)
(0.0028177449 6.4163963e-07 1.0238004e-06)
(0.0028056084 6.9902091e-07 1.0118746e-06)
(0.0027937799 7.54563e-07 9.9986776e-07)
(0.0027822461 8.0835181e-07 9.8780943e-07)
(0.0027709946 8.6046982e-07 9.7571824e-07)
(0.0027600137 9.1102777e-07 9.6360234e-07)
(0.0027492926 9.6019635e-07 9.5144687e-07)
(0.0027388207 1.0080065e-06 9.3926727e-07)
(0.0027285887 1.0528513e-06 9.2746551e-07)
(0.0027185878 1.0958676e-06 9.1582862e-07)
(0.0027088089 1.1374999e-06 9.042537e-07)
(0.0026992438 1.1777663e-06 8.9275866e-07)
(0.0026898847 1.2166555e-06 8.8136588e-07)
(0.0026807244 1.25417e-06 8.7008078e-07)
(0.0026717559 1.2903147e-06 8.5890703e-07)
(0.0026629726 1.3251073e-06 8.4785308e-07)
(0.0026543682 1.3585732e-06 8.3692387e-07)
(0.0026459367 1.3907409e-06 8.2612267e-07)
(0.0026376723 1.4216346e-06 8.1545271e-07)
(0.0026295698 1.4512892e-06 8.0491936e-07)
(0.0026216238 1.4797312e-06 7.9452249e-07)
(0.0026138294 1.5069906e-06 7.8426319e-07)
(0.002606182 1.5330933e-06 7.7414029e-07)
(0.0025986769 1.5580623e-06 7.6415231e-07)
(0.0025913099 1.5819199e-06 7.5429512e-07)
(0.0025840769 1.6046807e-06 7.4456486e-07)
(0.0025769739 1.6263481e-06 7.3495293e-07)