/*--------------------------------*- C++ -*----------------------------------*\
  =========                 |
  \\      /  F ield         | OpenFOAM: The Open Source CFD Toolbox
   \\    /   O peration     | Website:  https://openfoam.org
    \\  /    A nd           | Version:  7
     \\/     M anipulation  |
\*---------------------------------------------------------------------------*/
FoamFile
{
    version     2.0;
    format      ascii;
    class       surfaceScalarField;
    location    "3450/water";
    object      phi;
}
// * * * * * * * * * * * * * * * * * * * * * * * * * * * * * * * * * * * * * //

dimensions      [1 0 -1 0 0 0 0];

internalField   nonuniform List<scalar> 
156660
(
9.905724e-05
6.0010402e-06
6.0528092e-06
8.6847498e-05
6.0555113e-06
6.1542307e-06
7.5687891e-05
5.5111362e-06
5.6484701e-06
6.5441704e-05
5.0404181e-06
5.2057689e-06
5.6267661e-05
4.4956436e-06
4.6783992e-06
4.8318019e-05
3.8797648e-06
4.0698777e-06
4.1624776e-05
3.2524449e-06
3.4407981e-06
3.6124897e-05
2.660462e-06
2.839417e-06
3.1692235e-05
2.1345127e-06
2.2981489e-06
2.8162841e-05
1.6926975e-06
1.8366964e-06
2.5361437e-05
1.3399934e-06
1.4614113e-06
2.3124664e-05
1.0698477e-06
1.1669256e-06
2.1315127e-05
8.6875416e-07
9.4078227e-07
1.9825714e-05
7.2110063e-07
7.6831274e-07
1.8577278e-05
6.1248243e-07
6.3595306e-07
1.7513255e-05
5.3125221e-07
5.3277149e-07
1.6593744e-05
4.6879725e-07
4.5071349e-07
1.5790433e-05
4.191372e-07
3.8417388e-07
1.5082784e-05
3.782907e-07
3.2935847e-07
1.4455417e-05
3.4367127e-07
2.8369563e-07
1.3896409e-05
3.1361406e-07
2.4539332e-07
1.339622e-05
2.8704449e-07
2.1314451e-07
1.2947015e-05
2.6326032e-07
1.8594508e-07
1.2542237e-05
2.4179365e-07
1.6298461e-07
1.2176318e-05
2.2232207e-07
1.4359688e-07
1.1844484e-05
2.0461483e-07
1.2721882e-07
1.1542609e-05
1.8849498e-07
1.1337975e-07
1.1267116e-05
1.7381574e-07
1.0167794e-07
1.1014892e-05
1.604627e-07
9.1760835e-08
1.0783252e-05
1.483397e-07
8.3300591e-08
1.0569851e-05
1.3734904e-07
7.6052143e-08
1.0372614e-05
1.2738865e-07
6.9848318e-08
1.0189731e-05
1.1836808e-07
6.4514824e-08
1.001963e-05
1.1020445e-07
5.9896634e-08
9.8609388e-06
1.0281923e-07
5.5871663e-08
9.7124594e-06
9.613797e-08
5.2341371e-08
9.5731439e-06
9.0091171e-08
4.9224337e-08
9.4420759e-06
8.4614474e-08
4.6453542e-08
9.3184531e-06
7.9648662e-08
4.3974125e-08
9.2015723e-06
7.5139727e-08
4.1741071e-08
9.0908166e-06
7.103817e-08
3.971755e-08
8.9856431e-06
6.7301134e-08
3.787228e-08
8.8855707e-06
6.3894257e-08
3.6178146e-08
8.7901757e-06
6.0780104e-08
3.4614918e-08
8.6990829e-06
5.7926185e-08
3.3166629e-08
8.6119591e-06
5.5303753e-08
3.1820116e-08
8.5285072e-06
5.288744e-08
3.0564388e-08
8.4484619e-06
5.0655075e-08
2.9390264e-08
8.3715848e-06
4.858706e-08
2.8290018e-08
8.2976614e-06
4.6666164e-08
2.7257203e-08
8.2264975e-06
4.4877459e-08
2.6286427e-08
8.1579202e-06
4.320879e-08
2.5368502e-08
8.0917731e-06
4.1649072e-08
2.4498032e-08
8.0279108e-06
4.0186994e-08
2.3675341e-08
7.9662005e-06
3.8812684e-08
2.2897522e-08
7.9065219e-06
3.7518394e-08
2.216024e-08
7.8487639e-06
3.629783e-08
2.1460159e-08
7.7928242e-06
3.5145134e-08
2.0794589e-08
7.7386083e-06
3.4054652e-08
2.0161149e-08
7.6860293e-06
3.302134e-08
1.9557691e-08
7.6350063e-06
3.2040782e-08
1.8982281e-08
7.5854641e-06
3.1109063e-08
1.8433053e-08
7.537333e-06
3.0222594e-08
1.7908487e-08
7.4905478e-06
2.9378202e-08
1.7406995e-08
7.4450476e-06
2.8573007e-08
1.6927185e-08
7.4007755e-06
2.7804229e-08
1.6467797e-08
7.3576783e-06
2.7069584e-08
1.6027664e-08
7.3157056e-06
2.6367052e-08
1.5605639e-08
7.2748103e-06
2.5694672e-08
1.5200658e-08
7.2349479e-06
2.5050577e-08
1.4811816e-08
7.1960766e-06
2.4433095e-08
1.4438178e-08
7.158157e-06
2.3840676e-08
1.4078933e-08
7.1211518e-06
2.3271917e-08
1.3733297e-08
7.0850258e-06
2.2725493e-08
1.3400511e-08
7.0497456e-06
2.2200211e-08
1.3079939e-08
7.0152798e-06
2.1694896e-08
1.2770907e-08
6.9815985e-06
2.1208598e-08
1.2472777e-08
6.9486733e-06
2.0740238e-08
1.2184902e-08
6.9164775e-06
2.028898e-08
1.1906792e-08
6.8849857e-06
1.9853941e-08
1.1637836e-08
6.8541739e-06
1.9434378e-08
1.1377463e-08
6.8240193e-06
1.9029448e-08
1.1125105e-08
6.7945006e-06
1.8638491e-08
1.0880246e-08
6.7655975e-06
1.8260773e-08
1.0642311e-08
6.7372912e-06
1.7895533e-08
1.0410746e-08
6.709564e-06
1.7542112e-08
1.0185104e-08
6.6823995e-06
1.719965e-08
9.9648989e-09
6.6557824e-06
1.6867277e-08
9.7498183e-09
6.6296983e-06
1.6544159e-08
9.5399776e-09
6.6041331e-06
1.6229267e-08
9.3359733e-09
6.5790714e-06
1.5921987e-08
9.1396811e-09
6.554494e-06
1.5622331e-08
8.9550968e-09
6.5303708e-06
1.5332554e-08
8.7906949e-09
6.5066467e-06
1.5060452e-08
8.6636137e-09
6.4832094e-06
1.4827821e-08
8.6095303e-09
6.4598103e-06
1.4693063e-08
8.7059751e-09
6.4358387e-06
1.4826379e-08
9.1451483e-09
6.4096303e-06
1.5741763e-08
1.0466764e-08
6.3782855e-06
1.8026574e-08
1.3318257e-08
3.2300205e-08
2.7923534e-08
0.00010646494
4.1872385e-06
6.4599817e-06
0.0001002019
5.695418e-06
6.6231353e-06
9.3659588e-05
5.7790389e-06
6.2744098e-06
8.7011589e-05
5.6514783e-06
6.0369387e-06
8.0422927e-05
5.3669119e-06
5.7173941e-06
7.4094022e-05
4.9022832e-06
5.3063862e-06
6.8167026e-05
4.3278135e-06
4.8516272e-06
6.2722565e-05
3.717891e-06
4.387032e-06
5.7799049e-05
3.1243144e-06
3.9337145e-06
5.3403345e-05
2.5820689e-06
3.5063329e-06
4.9517402e-05
2.1121062e-06
3.1138299e-06
4.6105482e-05
1.7220197e-06
2.7597474e-06
4.3121558e-05
1.4089355e-06
2.4437429e-06
4.0515558e-05
1.1637552e-06
2.163346e-06
3.8237948e-05
9.748585e-07
1.9152336e-06
3.6242683e-05
8.3055974e-07
1.6959573e-06
3.4488759e-05
7.2043699e-07
1.5022849e-06
3.2940716e-05
6.3586297e-07
1.3313172e-06
3.1568463e-05
5.7005007e-07
1.1804931e-06
3.0346733e-05
5.1784897e-07
1.0475522e-06
2.9254398e-05
4.7545957e-07
9.3049034e-07
2.8273782e-05
4.4013958e-07
8.2752023e-07
2.7390054e-05
4.0994895e-07
7.3704007e-07
2.6590699e-05
3.8353956e-07
6.5760857e-07
2.5865102e-05
3.5998889e-07
5.8793071e-07
2.5204198e-05
3.3867633e-07
5.268426e-07
2.4600205e-05
3.1918361e-07
4.7330347e-07
2.4046429e-05
3.0120192e-07
4.2639017e-07
2.3537073e-05
2.8455207e-07
3.8526716e-07
2.3067119e-05
2.6911099e-07
3.4918237e-07
2.2632208e-05
2.5478169e-07
3.1747784e-07
2.2228528e-05
2.4147383e-07
2.8959531e-07
2.1852744e-05
2.2911075e-07
2.6504124e-07
2.1501947e-05
2.1762895e-07
2.4337258e-07
2.1173591e-05
2.0696955e-07
2.2420571e-07
2.0865444e-05
1.9707569e-07
2.0720866e-07
2.0575549e-05
1.8789254e-07
1.9209396e-07
2.0302183e-05
1.7936722e-07
1.786134e-07
2.0043829e-05
1.7144911e-07
1.6655324e-07
1.979915e-05
1.6408986e-07
1.5572946e-07
1.956696e-05
1.5724384e-07
1.4598406e-07
1.934621e-05
1.5086895e-07
1.3718217e-07
1.9135969e-05
1.4492652e-07
1.292088e-07
1.8935407e-05
1.393791e-07
1.2196307e-07
1.8743783e-05
1.3419234e-07
1.1535763e-07
1.8560435e-05
1.2933512e-07
1.0931725e-07
1.8384766e-05
1.2477908e-07
1.0377714e-07
1.8216241e-05
1.2049854e-07
9.8681285e-08
1.8054377e-05
1.164701e-07
9.3981304e-08
1.7898734e-05
1.1267291e-07
8.9635423e-08
1.7748917e-05
1.0908819e-07
8.5607017e-08
1.7604563e-05
1.0570003e-07
8.1862402e-08
1.7465345e-05
1.0249338e-07
7.8373262e-08
1.7330962e-05
9.9452982e-08
7.5116984e-08
1.7201138e-05
9.6564396e-08
7.2072749e-08
1.7075619e-05
9.3816644e-08
6.9221164e-08
1.695417e-05
9.1201111e-08
6.6545107e-08
1.6836577e-05
8.8709083e-08
6.4029541e-08
1.6722638e-05
8.6331931e-08
6.1661054e-08
1.661217e-05
8.4061745e-08
5.942769e-08
1.6505001e-05
8.1891545e-08
5.7318831e-08
1.640097e-05
7.9814904e-08
5.532481e-08
1.6299929e-05
7.7826147e-08
5.3437119e-08
1.620174e-05
7.5919841e-08
5.1647923e-08
1.6106272e-05
7.4091007e-08
4.9950131e-08
1.6013404e-05
7.2334963e-08
4.8337409e-08
1.5923022e-05
7.0647685e-08
4.6803857e-08
1.5835019e-05
6.9025713e-08
4.5344254e-08
1.5749294e-05
6.7465526e-08
4.3953697e-08
1.5665753e-05
6.5963765e-08
4.26277e-08
1.5584307e-05
6.4517377e-08
4.1362173e-08
1.5504871e-05
6.3123411e-08
4.0153376e-08
1.5427365e-05
6.1779315e-08
3.8997808e-08
1.5351716e-05
6.0482538e-08
3.7892284e-08
1.5277852e-05
5.9230842e-08
3.6833826e-08
1.5205705e-05
5.8021999e-08
3.5819736e-08
1.5135212e-05
5.6853991e-08
3.4847388e-08
1.5066313e-05
5.5724999e-08
3.3914359e-08
1.499895e-05
5.4633101e-08
3.3018403e-08
1.493307e-05
5.3576721e-08
3.2157428e-08
1.4868621e-05
5.2554173e-08
3.1329421e-08
1.4805554e-05
5.1563926e-08
3.053243e-08
1.4743823e-05
5.0604474e-08
2.9764669e-08
1.4683386e-05
4.9674277e-08
2.902438e-08
1.4624199e-05
4.8771804e-08
2.8309856e-08
1.4566226e-05
4.7895456e-08
2.7619588e-08
1.4509431e-05
4.7043506e-08
2.6951992e-08
1.4453778e-05
4.6214146e-08
2.6305768e-08
1.4399237e-05
4.5405412e-08
2.5679875e-08
1.4345777e-05
4.4615717e-08
2.5073752e-08
1.4293367e-05
4.3844278e-08
2.4487697e-08
1.4241972e-05
4.3092893e-08
2.3923733e-08
1.4191548e-05
4.2369921e-08
2.3387128e-08
1.4142019e-05
4.1699333e-08
2.2889618e-08
1.4093249e-05
4.1141649e-08
2.2456631e-08
1.4044951e-05
4.0844657e-08
2.2146543e-08
1.3996485e-05
4.1169212e-08
2.2123043e-08
1.3946229e-05
4.301234e-08
2.2985411e-08
1.389015e-05
4.8540263e-08
2.5565801e-08
6.3281531e-08
5.0000862e-08
0.00010603565
2.7876425e-06
6.4750379e-06
0.00010074799
4.4145413e-06
6.5685293e-06
9.5493515e-05
4.8594028e-06
6.1741158e-06
9.0256432e-05
4.930369e-06
5.9581921e-06
8.5101366e-05
4.8311767e-06
5.6908011e-06
8.0102875e-05
4.5561761e-06
5.3445981e-06
7.5322251e-05
4.1469521e-06
4.9614853e-06
7.0803266e-05
3.6678925e-06
4.5689837e-06
6.6576264e-05
3.1701903e-06
4.1811255e-06
6.2660725e-05
2.690011e-06
3.8075976e-06
5.9065443e-05
2.2519319e-06
3.4554566e-06
5.5788936e-05
1.8697304e-06
3.1287958e-06
5.2820978e-05
1.5477473e-06
2.8291458e-06
5.014479e-05
1.2836302e-06
2.5563139e-06
4.7739304e-05
1.07123e-06
2.3091141e-06
4.5581183e-05
9.0281506e-07
2.0858661e-06
4.3646423e-05
7.7048782e-07
1.884709e-06
4.1911533e-05
6.6697376e-07
1.7037793e-06
4.0354306e-05
5.8598199e-07
1.541295e-06
3.8954268e-05
5.2230221e-07
1.3955849e-06
3.769288e-05
4.7175604e-07
1.265091e-06
3.6553576e-05
4.3107984e-07
1.1483634e-06
3.552169e-05
3.9778204e-07
1.0440533e-06
3.4584322e-05
3.6999884e-07
9.5090831e-07
3.3730181e-05
3.4635986e-07
8.6777017e-07
3.2949411e-05
3.2587762e-07
7.9356871e-07
3.2233419e-05
3.078405e-07
7.2733485e-07
3.1574711e-05
2.9172985e-07
6.6818105e-07
3.0966769e-05
2.7719267e-07
6.1530128e-07
3.0403928e-05
2.6398101e-07
5.6797021e-07
2.9881258e-05
2.5190847e-07
5.2554313e-07
2.9394455e-05
2.4082715e-07
4.8745e-07
2.8939761e-05
2.3062162e-07
4.5318326e-07
2.8513895e-05
2.2120155e-07
4.2229385e-07
2.8113985e-05
2.1249196e-07
3.9438673e-07
2.7737518e-05
2.0442799e-07
3.6911488e-07
2.7382285e-05
1.9695197e-07
3.4617381e-07
2.7046344e-05
1.9001177e-07
3.2529678e-07
2.6727982e-05
1.8355992e-07
3.0625045e-07
2.6425689e-05
1.7755274e-07
2.8883086e-07
2.6138123e-05
1.7195001e-07
2.7285984e-07
2.5864094e-05
1.6671513e-07
2.5818183e-07
2.5602546e-05
1.6181454e-07
2.4466092e-07
2.535253e-05
1.572171e-07
2.3217765e-07
2.51132e-05
1.5289442e-07
2.2062726e-07
2.4883797e-05
1.4882095e-07
2.0991773e-07
2.4663634e-05
1.4497366e-07
1.9996812e-07
2.4452094e-05
1.4133181e-07
1.9070706e-07
2.4248615e-05
1.3787696e-07
1.8207152e-07
2.405269e-05
1.3459267e-07
1.7400574e-07
2.3863854e-05
1.3146461e-07
1.664599e-07
2.3681684e-05
1.2848056e-07
1.5938922e-07
2.3505794e-05
1.2562916e-07
1.5275412e-07
2.3335829e-05
1.2289868e-07
1.4651968e-07
2.3171462e-05
1.2027636e-07
1.4065462e-07
2.3012394e-05
1.1775474e-07
1.3513022e-07
2.2858345e-05
1.1532971e-07
1.2992041e-07
2.2709057e-05
1.1299538e-07
1.2500173e-07
2.2564291e-05
1.1074516e-07
1.2035291e-07
2.2423824e-05
1.0857348e-07
1.1595458e-07
2.2287451e-05
1.064755e-07
1.1178925e-07
2.2154978e-05
1.0444702e-07
1.078408e-07
2.2026226e-05
1.0248417e-07
1.0409458e-07
2.1901025e-05
1.005835e-07
1.0053718e-07
2.1779218e-05
9.8741536e-08
9.7156143e-08
2.1660658e-05
9.6954904e-08
9.3940274e-08
2.1545205e-05
9.5221254e-08
9.0879052e-08
2.1432729e-05
9.3538787e-08
8.7962792e-08
2.1323107e-05
9.1905298e-08
8.5182595e-08
2.1216222e-05
9.0318521e-08
8.2530183e-08
2.1111965e-05
8.8776419e-08
7.9997883e-08
2.1010233e-05
8.7277117e-08
7.7578653e-08
2.0910927e-05
8.5818973e-08
7.5265862e-08
2.0813956e-05
8.4400326e-08
7.3053444e-08
2.0719232e-05
8.3019676e-08
7.0935658e-08
2.0626671e-05
8.1675658e-08
6.8907208e-08
2.0536195e-05
8.036684e-08
6.6963113e-08
2.0447729e-05
7.9091979e-08
6.5098759e-08
2.0361203e-05
7.7849826e-08
6.3309728e-08
2.0276548e-05
7.663925e-08
6.1592051e-08
2.0193702e-05
7.545901e-08
5.9941734e-08
2.0112602e-05
7.4307968e-08
5.8355217e-08
2.0033193e-05
7.3184875e-08
5.6829077e-08
1.9955419e-05
7.208861e-08
5.535998e-08
1.9879228e-05
7.1017652e-08
5.3944869e-08
1.9804572e-05
6.9970445e-08
5.2580737e-08
1.9731406e-05
6.894524e-08
5.1264795e-08
1.9659685e-05
6.7940124e-08
4.9994381e-08
1.9589371e-05
6.6953049e-08
4.8767029e-08
1.9520423e-05
6.5982382e-08
4.7580538e-08
1.9452807e-05
6.5028031e-08
4.6433072e-08
1.9386482e-05
6.4094114e-08
4.5323743e-08
1.9321404e-05
6.3194692e-08
4.4253071e-08
1.9257511e-05
6.2366343e-08
4.3225222e-08
1.9194705e-05
6.1695171e-08
4.2253134e-08
1.9132798e-05
6.1374106e-08
4.1377398e-08
1.9071394e-05
6.1822419e-08
4.0750669e-08
1.9009424e-05
6.3924733e-08
4.10576e-08
1.8944661e-05
6.9304677e-08
4.3998844e-08
7.9170939e-08
7.4661571e-08
0.0001054937
1.9169871e-06
6.4880406e-06
0.00010005365
3.2729596e-06
6.5816334e-06
9.4926077e-05
3.8288995e-06
6.1580776e-06
8.9946373e-05
3.9838108e-06
5.9262629e-06
8.5163276e-05
3.9595077e-06
5.6547657e-06
8.0619137e-05
3.7899369e-06
5.3103784e-06
7.6329462e-05
3.5015547e-06
4.9350725e-06
7.230016e-05
3.1412013e-06
4.5559928e-06
6.8534206e-05
2.7514802e-06
4.1846641e-06
6.5032983e-05
2.3633493e-06
3.8278852e-06
6.1795789e-05
1.9984143e-06
3.490711e-06
5.8818843e-05
1.670376e-06
3.176301e-06
5.6094717e-05
1.3858295e-06
2.886043e-06
5.3612488e-05
1.1457945e-06
2.6200649e-06
5.1358373e-05
9.4764119e-07
2.3777043e-06
4.9316593e-05
7.8676785e-07
2.1578272e-06
4.7470246e-05
6.5779545e-07
1.9590391e-06
4.5802069e-05
5.5532541e-07
1.7798252e-06
4.4295042e-05
4.7437117e-07
1.6186378e-06
4.293283e-05
4.1056669e-07
1.473948e-06
4.1700078e-05
3.6023236e-07
1.3442759e-06
4.0582591e-05
3.2035742e-07
1.2282094e-06
3.956742e-05
2.8853739e-07
1.1244154e-06
3.8642881e-05
2.6289067e-07
1.0316467e-06
3.7798527e-05
2.4196987e-07
9.4874399e-07
3.7025076e-05
2.2467708e-07
8.7465173e-07
3.6314324e-05
2.1018902e-07
8.0840408e-07
3.5659057e-05
1.9788605e-07
7.491104e-07
3.5052961e-05
1.8731585e-07
6.9597282e-07
3.449052e-05
1.7814874e-07
6.4827383e-07
3.3966922e-05
1.7013169e-07
6.0537439e-07
3.3477973e-05
1.6306728e-07
5.6670863e-07
3.3020016e-05
1.5680298e-07
5.3177538e-07
3.2589865e-05
1.5122057e-07
5.0013239e-07
3.218474e-05
1.4622567e-07
4.7139136e-07
3.1802215e-05
1.4174075e-07
4.4521233e-07
3.1440168e-05
1.3770097e-07
4.212981e-07
3.1096739e-05
1.3405097e-07
3.9938923e-07
3.0770297e-05
1.3074293e-07
3.7925957e-07
3.0459402e-05
1.2773515e-07
3.6071195e-07
3.0162787e-05
1.2499093e-07
3.435748e-07
2.9879325e-05
1.2247787e-07
3.276985e-07
2.960802e-05
1.2016733e-07
3.1295268e-07
2.934798e-05
1.1803381e-07
2.9922353e-07
2.9098408e-05
1.1605464e-07
2.8641136e-07
2.885859e-05
1.1420982e-07
2.7442903e-07
2.8627882e-05
1.1248191e-07
2.6319998e-07
2.8405701e-05
1.108556e-07
2.5265685e-07
2.819152e-05
1.0931759e-07
2.4274021e-07
2.7984859e-05
1.0785646e-07
2.3339753e-07
2.7785279e-05
1.0646276e-07
2.2458212e-07
2.7592378e-05
1.051287e-07
2.1625213e-07
2.740579e-05
1.0384733e-07
2.0837034e-07
2.7225174e-05
1.0261116e-07
2.0090361e-07
2.705022e-05
1.0140749e-07
1.9382257e-07
2.6880641e-05
1.0023385e-07
1.8710041e-07
2.6716166e-05
9.9092362e-08
1.8071225e-07
2.6556546e-05
9.7979999e-08
1.7463557e-07
2.6401548e-05
9.689253e-08
1.6885015e-07
2.6250957e-05
9.5827091e-08
1.6333739e-07
2.610457e-05
9.4781698e-08
1.5808046e-07
2.5962199e-05
9.375471e-08
1.5306363e-07
2.5823666e-05
9.2744904e-08
1.4827261e-07
2.5688804e-05
9.1750999e-08
1.4369415e-07
2.5557458e-05
9.0771792e-08
1.3931599e-07
2.5429481e-05
8.9805193e-08
1.3512695e-07
2.5304734e-05
8.8851493e-08
1.3111643e-07
2.5183087e-05
8.7911252e-08
1.2727468e-07
2.5064416e-05
8.6983955e-08
1.2359244e-07
2.4948604e-05
8.6068922e-08
1.200612e-07
2.4835542e-05
8.5165768e-08
1.1667301e-07
2.4725124e-05
8.4274335e-08
1.1342047e-07
2.4617252e-05
8.3394282e-08
1.1029659e-07
2.4511832e-05
8.2525472e-08
1.0729479e-07
2.4408775e-05
8.1667723e-08
1.0440902e-07
2.4307997e-05
8.0820978e-08
1.0163344e-07
2.4209416e-05
7.9985015e-08
9.8962637e-08
2.4112956e-05
7.9159761e-08
9.6391521e-08
2.4018546e-05
7.8345013e-08
9.3915273e-08
2.3926115e-05
7.7540707e-08
9.1529298e-08
2.3835598e-05
7.6746561e-08
8.9229241e-08
2.3746933e-05
7.5962335e-08
8.7011018e-08
2.366006e-05
7.5187643e-08
8.4870729e-08
2.3574922e-05
7.4422002e-08
8.2804563e-08
2.3491466e-05
7.3664621e-08
8.0808922e-08
2.3409641e-05
7.2914619e-08
7.8880372e-08
2.33294e-05
7.2170697e-08
7.7015504e-08
2.3250698e-05
7.1431318e-08
7.5211009e-08
2.3173493e-05
7.0694908e-08
7.3463647e-08
2.3097745e-05
6.9960221e-08
7.1770082e-08
2.3023418e-05
6.9227995e-08
7.0127007e-08
2.2950477e-05
6.8503523e-08
6.8531211e-08
2.2878889e-05
6.7802892e-08
6.6979711e-08
2.2808619e-05
6.7165077e-08
6.5471578e-08
2.2739625e-05
6.6675255e-08
6.4013355e-08
2.267185e-05
6.650709e-08
6.2642312e-08
2.2605149e-05
6.699074e-08
6.1532381e-08
2.2538888e-05
6.8686056e-08
6.1499898e-08
2.2471121e-05
7.2226976e-08
6.4845104e-08
7.6722827e-08
9.8461316e-08
0.0001051979
1.3340885e-06
6.4961221e-06
9.9496561e-05
2.3731022e-06
6.6011947e-06
9.4262459e-05
2.9019223e-06
6.1610799e-06
8.9251186e-05
3.0856641e-06
5.9094196e-06
8.4493498e-05
3.0947346e-06
5.6224614e-06
8.0033635e-05
2.9846656e-06
5.265134e-06
7.5876907e-05
2.7790155e-06
4.8792667e-06
7.2014635e-05
2.5106844e-06
4.4927895e-06
6.8436293e-05
2.2128728e-06
4.1169489e-06
6.5131387e-05
1.9107259e-06
3.7575291e-06
6.208941e-05
1.6217321e-06
3.4186596e-06
5.9299432e-05
1.3573878e-06
3.1029661e-06
5.6749589e-05
1.1240344e-06
2.8116386e-06
5.4426788e-05
9.2377948e-07
2.5448158e-06
5.2316754e-05
7.5572799e-07
2.3019466e-06
5.0404313e-05
6.1717854e-07
2.0820302e-06
4.8673788e-05
5.0454351e-07
1.8837772e-06
4.7109414e-05
4.139718e-07
1.7057274e-06
4.5695713e-05
3.4173649e-07
1.5463363e-06
4.4417792e-05
2.8445146e-07
1.4040359e-06
4.3261575e-05
2.3917115e-07
1.277278e-06
4.2213953e-05
2.0341503e-07
1.1645652e-06
4.1262871e-05
1.7514742e-07
1.0644719e-06
4.039737e-05
1.527323e-07
9.7565896e-07
3.9607583e-05
1.3487527e-07
8.9688145e-07
3.8884688e-05
1.2055568e-07
8.2701638e-07
3.8220848e-05
1.0901093e-07
7.6501853e-07
3.7609155e-05
9.9633841e-08
7.0994487e-07
3.7043542e-05
9.1977474e-08
6.6095087e-07
3.6518702e-05
8.5705856e-08
6.1728287e-07
3.6030009e-05
8.0552421e-08
5.7827308e-07
3.5573433e-05
7.6308292e-08
5.4333411e-07
3.5145475e-05
7.2811283e-08
5.1195029e-07
3.4743091e-05
6.993413e-08
4.8367021e-07
3.4363641e-05
6.7575417e-08
4.5810062e-07
3.4004828e-05
6.5652924e-08
4.3489996e-07
3.3664659e-05
6.4098605e-08
4.137721e-07
3.3341393e-05
6.2855939e-08
3.9446096e-07
3.3033513e-05
6.1877005e-08
3.7674531e-07
3.2739693e-05
6.11211e-08
3.6043426e-07
3.2458768e-05
6.0553076e-08
3.4536326e-07
3.2189712e-05
6.0142703e-08
3.3139054e-07
3.1931622e-05
5.9863686e-08
3.1839372e-07
3.1683696e-05
5.9693134e-08
3.0626731e-07
3.1445219e-05
5.9611213e-08
2.9492011e-07
3.1215555e-05
5.9600628e-08
2.8427317e-07
3.0994132e-05
5.9646555e-08
2.7425809e-07
3.0780436e-05
5.973616e-08
2.6481538e-07
3.0574002e-05
5.9858669e-08
2.5589332e-07
3.0374407e-05
6.0004966e-08
2.4744659e-07
3.0181267e-05
6.0167639e-08
2.394355e-07
2.9994229e-05
6.0341263e-08
2.3182488e-07
2.9812971e-05
6.0521807e-08
2.2458375e-07
2.9637193e-05
6.0704479e-08
2.1768456e-07
2.9466629e-05
6.0867268e-08
2.1110456e-07
2.9301024e-05
6.101698e-08
2.048218e-07
2.914014e-05
6.1160878e-08
1.9881571e-07
2.8983756e-05
6.1294912e-08
1.9306839e-07
2.8831669e-05
6.1415443e-08
1.875639e-07
2.8683688e-05
6.1520938e-08
1.8228765e-07
2.8539633e-05
6.1610566e-08
1.7722638e-07
2.8399336e-05
6.1683774e-08
1.7236782e-07
2.8262639e-05
6.1740482e-08
1.6770092e-07
2.8129394e-05
6.1780713e-08
1.6321518e-07
2.7999461e-05
6.1803919e-08
1.5890121e-07
2.7872709e-05
6.1807352e-08
1.5475037e-07
2.7749012e-05
6.1793558e-08
1.5075442e-07
2.7628253e-05
6.1764814e-08
1.4690557e-07
2.7510319e-05
6.1721005e-08
1.4319661e-07
2.7395105e-05
6.1662115e-08
1.3962086e-07
2.728251e-05
6.1588629e-08
1.3617202e-07
2.7172439e-05
6.1501065e-08
1.3284425e-07
2.7064802e-05
6.1399971e-08
1.2963192e-07
2.6959511e-05
6.1285958e-08
1.2652993e-07
2.6856486e-05
6.1159535e-08
1.2353329e-07
2.6755649e-05
6.1021308e-08
1.2063729e-07
2.6656924e-05
6.0871872e-08
1.1783767e-07
2.6560242e-05
6.0711728e-08
1.1513013e-07
2.6465535e-05
6.0541426e-08
1.1251077e-07
2.6372738e-05
6.0361335e-08
1.0997578e-07
2.6281791e-05
6.0171941e-08
1.0752155e-07
2.6192636e-05
5.9973561e-08
1.051447e-07
2.6105215e-05
5.9766329e-08
1.0284184e-07
2.6019477e-05
5.9550242e-08
1.0060972e-07
2.5935371e-05
5.932516e-08
9.844529e-08
2.585285e-05
5.9090505e-08
9.6345375e-08
2.5771868e-05
5.884549e-08
9.4306938e-08
2.5692384e-05
5.8588986e-08
9.2326731e-08
2.5614357e-05
5.8319811e-08
9.0401438e-08
2.5537753e-05
5.8037091e-08
8.8527335e-08
2.5462539e-05
5.7741597e-08
8.6700216e-08
2.5388689e-05
5.7438459e-08
8.4915167e-08
2.5316184e-05
5.7141453e-08
8.3166643e-08
2.5245017e-05
5.6882578e-08
8.1449648e-08
2.51752e-05
5.6726051e-08
7.9765837e-08
2.510677e-05
5.6787931e-08
7.8149195e-08
2.5039729e-05
5.725161e-08
7.6780963e-08
2.4973573e-05
5.8330974e-08
7.6510216e-08
2.4906079e-05
5.9989488e-08
7.973214e-08
6.0714983e-08
1.1287821e-07
0.00010503672
9.0789372e-07
6.5005614e-06
9.9140653e-05
1.6524914e-06
6.6166802e-06
9.3788329e-05
2.0825241e-06
6.1717217e-06
8.8708526e-05
2.2549373e-06
5.91053e-06
8.3909682e-05
2.278404e-06
5.6151748e-06
7.9437109e-05
2.2074821e-06
5.2497564e-06
7.5296201e-05
2.0645348e-06
4.8553893e-06
7.1474034e-05
1.8722543e-06
4.4605969e-06
6.7955013e-05
1.6547667e-06
4.0771269e-06
6.4723621e-05
1.4313505e-06
3.7107669e-06
6.1764423e-05
1.2154297e-06
3.3655007e-06
5.9062056e-05
1.0158641e-06
3.0438911e-06
5.6601108e-05
8.3782743e-07
2.7471548e-06
5.4365944e-05
6.8344651e-07
2.475497e-06
5.2340648e-05
5.5258532e-07
2.2284384e-06
5.0509125e-05
4.4366548e-07
2.0050361e-06
4.8855299e-05
3.5433454e-07
1.8040352e-06
4.7363353e-05
2.8193588e-07
1.6239821e-06
4.6017963e-05
2.2381347e-07
1.4633127e-06
4.4804503e-05
1.7749385e-07
1.3204181e-06
4.3709199e-05
1.4078088e-07
1.1936935e-06
4.2719248e-05
1.1179153e-07
1.081575e-06
4.1822875e-05
8.8954516e-08
9.8256582e-07
4.1009364e-05
7.098801e-08
8.9525472e-07
4.0269054e-05
5.6861811e-08
8.1832382e-07
3.9593306e-05
4.5719133e-08
7.5058475e-07
3.8974405e-05
3.6977845e-08
6.9093436e-07
3.8405585e-05
3.0067391e-08
6.3838634e-07
3.7880869e-05
2.4650851e-08
5.9204241e-07
3.7395029e-05
2.0439973e-08
5.5110606e-07
3.6943514e-05
1.7190282e-08
5.1487715e-07
3.6522366e-05
1.4716749e-08
4.8273958e-07
3.6128148e-05
1.2874753e-08
4.541539e-07
3.5757883e-05
1.1549869e-08
4.2864942e-07
3.5408991e-05
1.0650748e-08
4.0581704e-07
3.5079238e-05
1.0103597e-08
3.8530227e-07
3.4766689e-05
9.8482518e-09
3.6679878e-07
3.4469668e-05
9.8351135e-09
3.5004234e-07
3.4186716e-05
1.002291e-08
3.3480555e-07
3.3916567e-05
1.0377019e-08
3.2089287e-07
3.3658116e-05
1.0868099e-08
3.081366e-07
3.3410395e-05
1.1470982e-08
2.9639283e-07
3.3172556e-05
1.2164236e-08
2.8553826e-07
3.2943852e-05
1.2929316e-08
2.7546716e-07
3.2723625e-05
1.3750152e-08
2.6608891e-07
3.2511286e-05
1.4613099e-08
2.5732571e-07
3.2306316e-05
1.5506247e-08
2.4911066e-07
3.2108246e-05
1.6419581e-08
2.4138625e-07
3.1916658e-05
1.7344639e-08
2.3410269e-07
3.1731171e-05
1.8274318e-08
2.2721712e-07
3.1551444e-05
1.9203166e-08
2.2069217e-07
3.1377162e-05
2.0127735e-08
2.1449507e-07
3.1208038e-05
2.1048641e-08
2.0859681e-07
3.10438e-05
2.1972785e-08
2.0297057e-07
3.0884232e-05
2.2827826e-08
1.9760738e-07
3.0729103e-05
2.3662936e-08
1.9248227e-07
3.05782e-05
2.4489999e-08
1.875738e-07
3.0431331e-05
2.5296288e-08
1.8286762e-07
3.0288318e-05
2.6077974e-08
1.7835077e-07
3.0148994e-05
2.68343e-08
1.7401107e-07
3.0013202e-05
2.7564683e-08
1.6983755e-07
2.9880797e-05
2.8268981e-08
1.6582024e-07
2.975164e-05
2.8947447e-08
1.6195012e-07
2.9625601e-05
2.9600801e-08
1.5821895e-07
2.9502557e-05
3.022857e-08
1.546192e-07
2.9382396e-05
3.082358e-08
1.5114466e-07
2.9265007e-05
3.1393116e-08
1.4778878e-07
2.9150287e-05
3.1939579e-08
1.4454538e-07
2.9038137e-05
3.2461883e-08
1.4140902e-07
2.8928465e-05
3.296008e-08
1.3837461e-07
2.8821181e-05
3.343472e-08
1.3543749e-07
2.8716203e-05
3.388638e-08
1.3259332e-07
2.8613449e-05
3.4315578e-08
1.2983787e-07
2.8512845e-05
3.4722903e-08
1.2716737e-07
2.8414317e-05
3.5108972e-08
1.2457816e-07
2.8317797e-05
3.547444e-08
1.220668e-07
2.8223219e-05
3.5819915e-08
1.1963008e-07
2.813052e-05
3.6145941e-08
1.1726493e-07
2.803964e-05
3.6453092e-08
1.1496841e-07
2.7950522e-05
3.6741861e-08
1.1273771e-07
2.7863111e-05
3.7012797e-08
1.1057026e-07
2.7777354e-05
3.7266239e-08
1.0846341e-07
2.7693204e-05
3.7502469e-08
1.0641476e-07
2.761061e-05
3.7721619e-08
1.0442176e-07
2.752953e-05
3.792356e-08
1.0248202e-07
2.7449919e-05
3.8107974e-08
1.0059306e-07
2.7371738e-05
3.8274254e-08
9.8752291e-08
2.7294949e-05
3.8421555e-08
9.6956889e-08
2.7219516e-05
3.8548746e-08
9.5203628e-08
2.714541e-05
3.8655148e-08
9.3488623e-08
2.7072603e-05
3.874118e-08
9.1806964e-08
2.7001079e-05
3.8810283e-08
9.0152328e-08
2.6930832e-05
3.8872182e-08
8.8516568e-08
2.6861876e-05
3.894744e-08
8.6890549e-08
2.679426e-05
3.9073542e-08
8.5269207e-08
2.6728065e-05
3.9306981e-08
8.3675931e-08
2.6663337e-05
3.9708341e-08
8.2271138e-08
2.659956e-05
4.0272016e-08
8.1836196e-08
2.6534295e-05
4.0698031e-08
8.4555724e-08
3.9620833e-08
1.1507132e-07
0.00010494757
5.681108e-07
6.5033076e-06
9.8925416e-05
1.0462983e-06
6.6283517e-06
9.3480449e-05
1.3439844e-06
6.1835065e-06
8.8341777e-05
1.4751324e-06
5.9184763e-06
8.3502084e-05
1.4993911e-06
5.6187065e-06
7.9004057e-05
1.4572411e-06
5.2482679e-06
7.4853978e-05
1.3667382e-06
4.8478757e-06
7.1037378e-05
1.2423973e-06
4.4464569e-06
6.7536063e-05
1.0997693e-06
4.0563127e-06
6.4331998e-05
9.5192359e-07
3.683491e-06
6.1407318e-05
8.0805755e-07
3.3320524e-06
5.8744339e-05
6.7422205e-07
3.0046209e-06
5.6325632e-05
5.5404399e-07
2.7024907e-06
5.4133973e-05
4.491675e-07
2.4259383e-06
5.2152298e-05
3.5972398e-07
2.174536e-06
5.0363747e-05
2.848451e-07
1.9473718e-06
4.875178e-05
2.2310003e-07
1.7432015e-06
4.7300339e-05
1.7281164e-07
1.5605647e-06
4.5994012e-05
1.3226572e-07
1.3978748e-06
4.4818177e-05
9.9840019e-08
1.2534891e-06
4.3759121e-05
7.4075595e-08
1.1257614e-06
4.2804123e-05
5.3707622e-08
1.0130814e-06
4.1941503e-05
3.7671226e-08
9.1390377e-07
4.1160627e-05
2.5096474e-08
8.2676731e-07
4.0451891e-05
1.5294189e-08
7.5030389e-07
3.980679e-05
7.5281666e-09
6.8329174e-07
3.9217543e-05
1.6727584e-09
6.2455204e-07
3.8677513e-05
-3.0330865e-09
5.7313082e-07
3.8180739e-05
-6.6486255e-09
5.2807353e-07
3.7722004e-05
-9.3594892e-09
4.8853452e-07
3.7296777e-05
-1.1371785e-08
4.5378926e-07
3.6901112e-05
-1.2818248e-08
4.2319911e-07
3.6531588e-05
-1.3805316e-08
3.9620479e-07
3.6185236e-05
-1.4417509e-08
3.7231877e-07
3.5859491e-05
-1.4721911e-08
3.5111776e-07
3.5552132e-05
-1.4772619e-08
3.3223577e-07
3.5261237e-05
-1.4613921e-08
3.1535728e-07
3.4985143e-05
-1.4282186e-08
3.0021088e-07
3.472241e-05
-1.3807677e-08
2.8656375e-07
3.4471787e-05
-1.321587e-08
2.742163e-07
3.4232185e-05
-1.2528173e-08
2.6299769e-07
3.4002657e-05
-1.1762788e-08
2.5276173e-07
3.3782373e-05
-1.0935235e-08
2.4338334e-07
3.3570606e-05
-1.0058784e-08
2.3475556e-07
3.3366714e-05
-9.1447603e-09
2.2678669e-07
3.3170131e-05
-8.2028211e-09
2.1939829e-07
3.2980356e-05
-7.2412243e-09
2.1252299e-07
3.279694e-05
-6.266877e-09
2.0610283e-07
3.2619482e-05
-5.2855348e-09
2.0008785e-07
3.2447623e-05
-4.301818e-09
1.9443481e-07
3.228104e-05
-3.3190796e-09
1.8910586e-07
3.2119438e-05
-2.3383183e-09
1.8406732e-07
3.1962554e-05
-1.3530456e-09
1.792865e-07
3.1810075e-05
-2.7632071e-10
1.7472769e-07
3.1661878e-05
5.8582027e-10
1.7043906e-07
3.1517732e-05
1.4355528e-09
1.6637292e-07
3.1377429e-05
2.3038164e-09
1.6248956e-07
3.1240792e-05
3.1586422e-09
1.5877484e-07
3.1107656e-05
3.996988e-09
1.5521716e-07
3.0977867e-05
4.8171715e-09
1.5180546e-07
3.0851284e-05
5.6179858e-09
1.4852969e-07
3.0727774e-05
6.3990249e-09
1.453808e-07
3.0607209e-05
7.1609264e-09
1.4235054e-07
3.0489473e-05
7.9059649e-09
1.3943121e-07
3.037445e-05
8.6357359e-09
1.3661577e-07
3.0262049e-05
9.3206607e-09
1.3390394e-07
3.0152163e-05
9.9938083e-09
1.3128565e-07
3.0044697e-05
1.0650375e-08
1.2875512e-07
2.9939564e-05
1.1286766e-08
1.263083e-07
2.983668e-05
1.1903182e-08
1.2394088e-07
2.9735965e-05
1.250014e-08
1.2164885e-07
2.9637345e-05
1.307787e-08
1.1942842e-07
2.9540748e-05
1.3636721e-08
1.1727618e-07
2.9446105e-05
1.4177038e-08
1.1518883e-07
2.9353352e-05
1.4699195e-08
1.1316341e-07
2.9262425e-05
1.5203539e-08
1.11197e-07
2.9173268e-05
1.5690502e-08
1.0928708e-07
2.9085822e-05
1.6160383e-08
1.0743106e-07
2.9000035e-05
1.6613588e-08
1.0562663e-07
2.8915855e-05
1.7050399e-08
1.0387151e-07
2.8833233e-05
1.7471096e-08
1.021636e-07
2.8752123e-05
1.7875945e-08
1.005008e-07
2.8672479e-05
1.8265085e-08
9.8881123e-08
2.8594259e-05
1.8638561e-08
9.7302514e-08
2.8517424e-05
1.8996224e-08
9.5762959e-08
2.8441934e-05
1.9337823e-08
9.4260347e-08
2.8367753e-05
1.9662808e-08
9.2792343e-08
2.8294848e-05
1.9970478e-08
9.1356271e-08
2.8223187e-05
2.026004e-08
8.9948873e-08
2.8152746e-05
2.0530735e-08
8.8565915e-08
2.8083503e-05
2.0782632e-08
8.720182e-08
2.8015447e-05
2.1017563e-08
8.5848702e-08
2.7948582e-05
2.1240752e-08
8.4495843e-08
2.7882937e-05
2.1462763e-08
8.3129531e-08
2.7818574e-05
2.1700024e-08
8.1736535e-08
2.7755588e-05
2.1969304e-08
8.0324349e-08
2.7694014e-05
2.2266196e-08
7.9016092e-08
2.7633299e-05
2.2506278e-08
7.8480652e-08
2.7571004e-05
2.2393408e-08
8.059947e-08
2.0993082e-08
1.0779946e-07
0.00010489986
2.7443376e-07
6.5049155e-06
9.8802772e-05
5.0716634e-07
6.6362236e-06
9.329591e-05
6.5854973e-07
6.1922972e-06
8.8116302e-05
7.2902546e-07
5.9257148e-06