/*--------------------------------*- C++ -*----------------------------------*\
  =========                 |
  \\      /  F ield         | OpenFOAM: The Open Source CFD Toolbox
   \\    /   O peration     | Website:  https://openfoam.org
    \\  /    A nd           | Version:  7
     \\/     M anipulation  |
\*---------------------------------------------------------------------------*/
FoamFile
{
    version     2.0;
    format      ascii;
    class       volVectorField;
    location    "3450/water";
    object      U;
}
// * * * * * * * * * * * * * * * * * * * * * * * * * * * * * * * * * * * * * //

dimensions      [0 1 -1 0 0 0 0];

internalField   nonuniform List<vector> 
54000
(
(0.0090020934 0.00020305973 0.00020444027)
(0.0083186447 0.00023622738 0.00023904411)
(0.0073695241 0.00021363852 0.00021763527)
(0.0063566114 0.00018488016 0.00018965819)
(0.0054486673 0.00015530836 0.00016048633)
(0.0046741594 0.00012529952 0.00013052937)
(0.0040193038 9.7052611e-05 0.00010203017)
(0.0034740067 7.2578999e-05 7.7073287e-05)
(0.0030302461 5.2876126e-05 5.6738329e-05)
(0.0026757323 3.8068151e-05 4.1216512e-05)
(0.0023947254 2.7637704e-05 3.0037141e-05)
(0.0021713898 2.0689034e-05 2.2336509e-05)
(0.0019919695 1.623616e-05 1.7152704e-05)
(0.0018455015 1.3416235e-05 1.3643173e-05)
(0.0017237326 1.1582488e-05 1.1179122e-05)
(0.0016206928 1.0304892e-05 9.3455813e-06)
(0.0015321593 9.3257909e-06 7.895716e-06)
(0.0014551546 8.5052966e-06 6.6953107e-06)
(0.0013875459 7.7746336e-06 5.6760572e-06)
(0.0013277612 7.103428e-06 4.8034862e-06)
(0.001274601 6.4798494e-06 4.0581563e-06)
(0.0012271179 5.8999457e-06 3.4261574e-06)
(0.0011845424 5.3625304e-06 2.8950704e-06)
(0.001146235 4.8670209e-06 2.4526296e-06)
(0.0011116558 4.4125994e-06 2.0869759e-06)
(0.0010803434 3.9980138e-06 1.7867455e-06)
(0.0010519002 3.6214613e-06 1.541613e-06)
(0.0010259819 3.2805938e-06 1.3421854e-06)
(0.001002289 2.973395e-06 1.1797309e-06)
(0.00098056199 2.69795e-06 1.0463197e-06)
(0.00096057571 2.4519209e-06 9.365896e-07)
(0.00094213242 2.2325672e-06 8.4693342e-07)
(0.00092505792 2.0373866e-06 7.7316568e-07)
(0.00090920047 1.8640889e-06 7.1184243e-07)
(0.00089442818 1.7104633e-06 6.6046735e-07)
(0.0008806259 1.5743829e-06 6.1707401e-07)
(0.00086769295 1.4538613e-06 5.8005315e-07)
(0.00085554128 1.3470713e-06 5.4811404e-07)
(0.00084409387 1.2523497e-06 5.2023932e-07)
(0.00083328322 1.168199e-06 4.9562761e-07)
(0.00082305015 1.093262e-06 4.7365289e-07)
(0.00081334267 1.0262296e-06 4.5378217e-07)
(0.00080411486 9.6585907e-07 4.3554443e-07)
(0.00079532615 9.1131097e-07 4.186499e-07)
(0.0007869407 8.6191737e-07 4.0290636e-07)
(0.00077892675 8.1708385e-07 3.8816784e-07)
(0.00077125603 7.7627661e-07 3.7432044e-07)
(0.0007639033 7.390264e-07 3.6127558e-07)
(0.00075684598 7.0491507e-07 3.4896388e-07)
(0.00075006373 6.7357479e-07 3.3733126e-07)
(0.00074353822 6.4469358e-07 3.2633719e-07)
(0.00073725294 6.1802582e-07 3.1581762e-07)
(0.00073119314 5.9334853e-07 3.0574356e-07)
(0.00072534528 5.7041954e-07 2.9621073e-07)
(0.00071969687 5.4902494e-07 2.8716613e-07)
(0.00071423652 5.2901438e-07 2.7854347e-07)
(0.00070895386 5.1027265e-07 2.7031168e-07)
(0.00070383928 4.9268656e-07 2.6244828e-07)
(0.00069888397 4.7614439e-07 2.5493211e-07)
(0.00069407976 4.6054938e-07 2.4774349e-07)
(0.00068941911 4.4581993e-07 2.408646e-07)
(0.00068489502 4.3188489e-07 2.3427569e-07)
(0.00068050098 4.1867883e-07 2.2796403e-07)
(0.00067623091 4.0614557e-07 2.2191185e-07)
(0.00067207915 3.942349e-07 2.1610505e-07)
(0.00066804042 3.8289701e-07 2.1053132e-07)
(0.00066410976 3.7209419e-07 2.0517849e-07)
(0.00066028251 3.6179405e-07 2.0003292e-07)
(0.00065655429 3.5196316e-07 1.9508223e-07)
(0.00065292099 3.425697e-07 1.903177e-07)
(0.00064937872 3.3358633e-07 1.8572831e-07)
(0.00064592383 3.2498773e-07 1.8130563e-07)
(0.00064255288 3.1675147e-07 1.7704073e-07)
(0.00063926261 3.0885605e-07 1.7292467e-07)
(0.00063604992 3.0128275e-07 1.6895098e-07)
(0.00063291192 2.9401242e-07 1.6511143e-07)
(0.00062984583 2.870315e-07 1.6139817e-07)
(0.00062684904 2.8032158e-07 1.5780254e-07)
(0.00062391907 2.7387079e-07 1.543202e-07)
(0.00062105358 2.6766544e-07 1.5094227e-07)
(0.00061825035 2.6169488e-07 1.4766117e-07)
(0.00061550727 2.5594499e-07 1.4446922e-07)
(0.00061282235 2.5040696e-07 1.4135965e-07)
(0.00061019373 2.4506928e-07 1.3832435e-07)
(0.00060761964 2.3991887e-07 1.3535567e-07)
(0.00060509845 2.349464e-07 1.3244916e-07)
(0.00060262862 2.3013568e-07 1.29599e-07)
(0.00060020873 2.2547e-07 1.2680429e-07)
(0.00059783744 2.2093265e-07 1.240752e-07)
(0.00059551348 2.1649874e-07 1.2143286e-07)
(0.00059323555 2.1214948e-07 1.1892924e-07)
(0.00059100214 2.0787199e-07 1.1666253e-07)
(0.00058881114 2.0369062e-07 1.1483106e-07)
(0.00058665898 1.9973091e-07 1.1382047e-07)
(0.0005845387 1.9638461e-07 1.1441116e-07)
(0.00058243501 1.9487226e-07 1.1837209e-07)
(0.00058031396 1.997738e-07 1.3094414e-07)
(0.0005781161 2.2258504e-07 1.6397679e-07)
(0.00057566369 1.9706947e-07 1.5080727e-07)
(0.00056906201 7.8896387e-07 7.5322541e-07)
(0.0095316863 0.0003313754 0.00022336697)
(0.0092716504 0.00041105942 0.00027052342)
(0.0087756651 0.00040317187 0.00026060062)
(0.0081527518 0.00038218754 0.00024252081)
(0.0075302151 0.00035309574 0.00022101125)
(0.0069425889 0.00031541062 0.00019648834)
(0.006391209 0.00027309198 0.00017102969)
(0.0058791845 0.00023030694 0.00014652546)
(0.0054120202 0.00019001855 0.00012410997)
(0.0049926512 0.00015423459 0.00010436627)
(0.004620592 0.00012408347 8.7479017e-05)
(0.0042931332 9.9809402e-05 7.3327495e-05)
(0.0040063965 8.0956423e-05 6.1601505e-05)
(0.0037559538 6.667221e-05 5.1918795e-05)
(0.0035372541 5.5985799e-05 4.3907445e-05)
(0.003345947 4.7992056e-05 3.7246645e-05)
(0.0031780884 4.1941711e-05 3.167753e-05)
(0.0030302311 3.7262447e-05 2.6997921e-05)
(0.0028994324 3.3540997e-05 2.3051138e-05)
(0.0027832152 3.0490244e-05 1.9714593e-05)
(0.0026795075 2.7915735e-05 1.6890544e-05)
(0.0025865783 2.5687841e-05 1.4499382e-05)
(0.002502978 2.3720893e-05 1.2475015e-05)
(0.0024274871 2.1958431e-05 1.0761725e-05)
(0.0023590736 2.0362993e-05 9.3122319e-06)
(0.0022968589 1.8909455e-05 8.0861284e-06)
(0.0022400906 1.758077e-05 7.0489622e-06)
(0.0021881216 1.6364899e-05 6.1714976e-06)
(0.0021403932 1.5251963e-05 5.428314e-06)
(0.0020964214 1.423385e-05 4.7973496e-06)
(0.0020557868 1.3303041e-05 4.2604812e-06)
(0.0020181236 1.2451987e-05 3.802703e-06)
(0.0019831119 1.1673909e-05 3.4109603e-06)
(0.0019504718 1.0962755e-05 3.0744207e-06)
(0.0019199589 1.0312855e-05 2.7842597e-06)
(0.0018913593 9.7188346e-06 2.5331798e-06)
(0.0018644851 9.1756448e-06 2.3150733e-06)
(0.0018391716 8.6785723e-06 2.1248303e-06)
(0.0018152735 8.2232434e-06 1.9581842e-06)
(0.0017926629 7.8056221e-06 1.8115686e-06)
(0.0017712268 7.421999e-06 1.6820121e-06)
(0.001750865 7.0689375e-06 1.56707e-06)
(0.0017314886 6.7432688e-06 1.4647422e-06)
(0.0017130186 6.4422739e-06 1.3732753e-06)
(0.0016953848 6.1635584e-06 1.2911594e-06)
(0.0016785241 5.9049794e-06 1.217119e-06)
(0.00166238 5.6646098e-06 1.1500838e-06)
(0.0016469019 5.4407258e-06 1.089149e-06)
(0.001632044 5.2317769e-06 1.0335529e-06)
(0.0016177649 5.0363837e-06 9.826543e-07)
(0.0016040271 4.8533215e-06 9.358947e-07)
(0.0015907965 4.6815625e-06 8.9273687e-07)
(0.0015780424 4.5201578e-06 8.5278626e-07)
(0.0015657364 4.3681538e-06 8.1576998e-07)
(0.0015538526 4.2246824e-06 7.8138566e-07)
(0.0015423672 4.0890598e-06 7.4934555e-07)
(0.0015312583 3.9607279e-06 7.1941255e-07)
(0.0015205058 3.8391503e-06 6.9138733e-07)
(0.0015100909 3.7238111e-06 6.6509424e-07)
(0.0014999963 3.6142422e-06 6.4037945e-07)
(0.0014902061 3.5100294e-06 6.1710895e-07)
(0.0014807053 3.4107979e-06 5.9515952e-07)
(0.00147148 3.316211e-06 5.7442752e-07)
(0.0014625175 3.2259577e-06 5.5481517e-07)
(0.0014538055 3.1397543e-06 5.3623583e-07)
(0.0014453328 3.0573342e-06 5.1861395e-07)
(0.0014370889 2.9784689e-06 5.0187814e-07)
(0.0014290637 2.9029579e-06 4.8596767e-07)
(0.001421248 2.8306032e-06 4.7082348e-07)
(0.001413633 2.7612183e-06 4.5639298e-07)
(0.0014062103 2.694634e-06 4.4262858e-07)
(0.0013989723 2.6306904e-06 4.2948797e-07)
(0.0013919116 2.5692457e-06 4.1693062e-07)
(0.0013850211 2.5101625e-06 4.0492069e-07)
(0.0013782945 2.4533188e-06 3.934241e-07)
(0.0013717253 2.3985945e-06 3.8241166e-07)
(0.0013653078 2.3458843e-06 3.7185239e-07)
(0.0013590364 2.2950863e-06 3.6171816e-07)
(0.0013529058 2.2461038e-06 3.5198363e-07)
(0.001346911 2.1988503e-06 3.4262562e-07)
(0.0013410472 2.1532414e-06 3.3362064e-07)
(0.0013353099 2.1091951e-06 3.2494506e-07)
(0.001329695 2.0666364e-06 3.1657869e-07)
(0.0013241983 2.0254881e-06 3.085003e-07)
(0.001318816 1.9856724e-06 3.0068968e-07)
(0.0013135446 1.9471139e-06 2.9313115e-07)
(0.0013083808 1.9097275e-06 2.8580571e-07)
(0.0013033213 1.8734253e-06 2.7870226e-07)
(0.0012983632 1.8381163e-06 2.718159e-07)
(0.0012935038 1.8037147e-06 2.6515374e-07)
(0.0012887402 1.7701712e-06 2.5874284e-07)
(0.0012840698 1.7375342e-06 2.5264978e-07)
(0.0012794889 1.706122e-06 2.4701347e-07)
(0.0012749925 1.6769099e-06 2.4211303e-07)
(0.001270572 1.6524684e-06 2.3851869e-07)
(0.0012662098 1.6393329e-06 2.3765952e-07)
(0.0012618709 1.6545765e-06 2.4458235e-07)
(0.0012574959 1.746373e-06 2.7712511e-07)
(0.0012529717 2.0376717e-06 2.6526457e-07)
(0.0012433358 2.9514811e-06 1.3525335e-06)
(0.0095221617 0.00021179965 0.00022180581)
(0.009269783 0.00029872516 0.00026628967)
(0.0088657772 0.00031669844 0.00025526743)
(0.0083755729 0.000317438 0.00023864265)
(0.0078888426 0.00030841043 0.00021987851)
(0.0074276349 0.00028848207 0.00019850458)
(0.006988258 0.00026048391 0.00017617916)
(0.0065698164 0.00022855168 0.00015444521)
(0.0061756011 0.00019596771 0.00013413534)
(0.0058087146 0.00016504408 0.00011567593)
(0.0054706295 0.00013728621 9.9270839e-05)
(0.0051615551 0.00011345265 8.4947831e-05)
(0.0048808654 9.3684507e-05 7.2600737e-05)
(0.0046272998 7.7712987e-05 6.2044901e-05)
(0.0043991196 6.5057025e-05 5.3064542e-05)
(0.0041942886 5.5163888e-05 4.544363e-05)
(0.0040106431 4.7493348e-05 3.8982753e-05)
(0.0038460219 4.1561378e-05 3.3506381e-05)
(0.0036983537 3.6958195e-05 2.8864075e-05)
(0.0035657105 3.3351174e-05 2.4928486e-05)
(0.0034463343 3.0479503e-05 2.1592135e-05)
(0.003338646 2.8144769e-05 1.8764098e-05)
(0.003241243 2.6200155e-05 1.6367138e-05)
(0.0031528887 2.4539753e-05 1.4335369e-05)
(0.0030724986 2.3088868e-05 1.2612489e-05)
(0.0029991252 2.1796114e-05 1.1150134e-05)
(0.0029319421 2.0626906e-05 9.9064817e-06)
(0.0028702292 1.9558163e-05 8.8458156e-06)
(0.0028133589 1.8574038e-05 7.9385379e-06)
(0.0027607855 1.7663622e-05 7.1598236e-06)
(0.0027120345 1.6818833e-05 6.4890352e-06)
(0.0026666927 1.6033067e-05 5.9090202e-06)
(0.0026243991 1.5301097e-05 5.4052717e-06)
(0.0025848382 1.4618821e-05 4.9656519e-06)
(0.0025477347 1.3982714e-05 4.5801142e-06)
(0.0025128472 1.3389545e-05 4.2403262e-06)
(0.002479964 1.2836282e-05 3.939355e-06)
(0.0024488994 1.2320058e-05 3.671425e-06)
(0.0024194896 1.1838144e-05 3.4317265e-06)
(0.00239159 1.1387941e-05 3.2162514e-06)
(0.0023650729 1.0966985e-05 3.02166e-06)
(0.0023398248 1.0572999e-05 2.8451735e-06)
(0.0023157449 1.0203874e-05 2.6844748e-06)
(0.0022927433 9.8575819e-06 2.5375947e-06)
(0.0022707398 9.5322168e-06 2.402864e-06)
(0.002249662 9.2260292e-06 2.2788664e-06)
(0.0022294453 8.937419e-06 2.1644003e-06)
(0.0022100312 8.6649288e-06 2.0584382e-06)
(0.0021913666 8.4072365e-06 1.9601008e-06)
(0.0021734038 8.1631545e-06 1.8686326e-06)
(0.0021560989 7.9316208e-06 1.7833676e-06)
(0.0021394122 7.7117232e-06 1.7037071e-06)
(0.0021233074 7.5026014e-06 1.6291516e-06)
(0.0021077512 7.303379e-06 1.5592831e-06)
(0.0020927129 7.1131877e-06 1.49372e-06)
(0.0020781645 6.9314158e-06 1.4321047e-06)
(0.0020640799 6.7576058e-06 1.3741135e-06)
(0.0020504351 6.5912606e-06 1.3194615e-06)
(0.0020372075 6.4318778e-06 1.2678954e-06)
(0.0020243766 6.2790062e-06 1.2191868e-06)
(0.0020119231 6.132242e-06 1.1731325e-06)
(0.001999829 5.9912204e-06 1.1295436e-06)
(0.0019880776 5.8556104e-06 1.0882497e-06)
(0.0019766531 5.7251035e-06 1.0490963e-06)
(0.0019655411 5.5994074e-06 1.0119371e-06)
(0.0019547276 5.4782444e-06 9.7664616e-07)
(0.0019441999 5.3613885e-06 9.4310109e-07)
(0.0019339458 5.2486472e-06 9.1118911e-07)
(0.0019239539 5.1398177e-06 8.8080752e-07)
(0.0019142135 5.0347022e-06 8.5186045e-07)
(0.0019047144 4.93312e-06 8.2425946e-07)
(0.001895447 4.8348998e-06 7.9792491e-07)
(0.0018864023 4.7398909e-06 7.7278022e-07)
(0.0018775718 4.6479434e-06 7.4875683e-07)
(0.0018689473 4.5589229e-06 7.2578808e-07)
(0.0018605211 4.4727008e-06 7.0381403e-07)
(0.0018522861 4.3891533e-06 6.827773e-07)
(0.0018442353 4.3081699e-06 6.6262548e-07)
(0.0018363621 4.2296377e-06 6.4330646e-07)
(0.0018286604 4.1534586e-06 6.247771e-07)
(0.0018211241 4.0795288e-06 6.0698826e-07)
(0.0018137478 4.007753e-06 5.8990022e-07)
(0.0018065261 3.9380343e-06 5.734736e-07)
(0.001799454 3.8702789e-06 5.5766754e-07)
(0.0017925266 3.8043823e-06 5.424479e-07)
(0.0017857396 3.740237e-06 5.2777896e-07)
(0.0017790885 3.6777265e-06 5.1362936e-07)
(0.0017725695 3.6167274e-06 4.9996962e-07)
(0.0017661787 3.5571081e-06 4.8677466e-07)
(0.0017599128 3.4987617e-06 4.740251e-07)
(0.0017537682 3.4416548e-06 4.6170898e-07)
(0.0017477416 3.3859647e-06 4.498357e-07)
(0.0017418294 3.3323831e-06 4.3844232e-07)
(0.0017360272 3.2827925e-06 4.2764607e-07)
(0.0017303281 3.2417784e-06 4.1776809e-07)
(0.0017247202 3.2200425e-06 4.0999077e-07)
(0.001719183 3.2421564e-06 4.0984972e-07)
(0.001713691 3.3643452e-06 4.4114371e-07)
(0.0017081999 3.7072194e-06 4.7353395e-07)
(0.0016974804 4.4611195e-06 1.8634999e-06)
(0.0095012861 0.00013951169 0.00022248511)
(0.0092133349 0.00022408324 0.00026709763)
(0.0088018509 0.00025700941 0.00025529581)
(0.0083306071 0.00026690691 0.0002382081)
(0.0078754299 0.00026502158 0.00021939837)
(0.0074527063 0.00025295651 0.00019823245)
(0.0070564396 0.00023295893 0.00017634609)
(0.0066827538 0.00020836345 0.0001552305)
(0.006331873 0.00018203354 0.00013558338)
(0.0060047052 0.00015603739 0.00011769036)
(0.0057015056 0.00013180401 0.00010166909)
(0.0054220192 0.00011020725 8.7524314e-05)
(0.0051656909 9.16319e-05 7.5171986e-05)
(0.0049316845 7.6091186e-05 6.4472618e-05)
(0.0047188814 6.3363142e-05 5.526115e-05)
(0.0045259349 5.3104942e-05 4.7366821e-05)
(0.0043513547 4.4932757e-05 4.06249e-05)
(0.0041935865 3.8471361e-05 3.4883032e-05)
(0.0040510752 3.3381246e-05 3.0003995e-05)
(0.0039223115 2.9370509e-05 2.5866183e-05)
(0.0038058643 2.6197262e-05 2.2362868e-05)
(0.0037004012 2.3666731e-05 1.9400962e-05)
(0.0036047 2.1625758e-05 1.6899611e-05)
(0.0035176529 1.9956328e-05 1.4788823e-05)
(0.0034382652 1.8569049e-05 1.3008104e-05)
(0.0033656513 1.7397364e-05 1.1504746e-05)
(0.0032990266 1.6392005e-05 1.0233523e-05)
(0.0032376995 1.5516242e-05 9.1565337e-06)
(0.0031810636 1.4743888e-05 8.2421118e-06)
(0.0031285885 1.4056153e-05 7.4635757e-06)
(0.0030798115 1.3438894e-05 6.7985198e-06)
(0.0030343294 1.2881152e-05 6.228221e-06)
(0.0029917905 1.2374497e-05 5.7369813e-06)
(0.0029518882 1.1912422e-05 5.3116657e-06)
(0.0029143553 1.1489693e-05 4.9413536e-06)
(0.0028789586 1.110193e-05 4.6170009e-06)
(0.0028454946 1.0745381e-05 4.3311224e-06)
(0.0028137847 1.0416776e-05 4.0775284e-06)
(0.0027836727 1.0113217e-05 3.8511092e-06)
(0.0027550209 9.8321207e-06 3.6476454e-06)
(0.0027277081 9.5711592e-06 3.4636648e-06)
(0.002701627 9.3282498e-06 3.2963006e-06)
(0.0026766823 9.1015155e-06 3.1431905e-06)
(0.0026527895 8.8892437e-06 3.0023828e-06)
(0.0026298729 8.6898924e-06 2.8722557e-06)
(0.0026078648 8.5020888e-06 2.7514701e-06)
(0.002586704 8.324617e-06 2.6389097e-06)
(0.0025663358 8.1563963e-06 2.5336418e-06)
(0.0025467102 7.9964766e-06 2.4348842e-06)
(0.002527782 7.8440266e-06 2.3419779e-06)
(0.0025095101 7.6983362e-06 2.2543615e-06)
(0.0024918566 7.558809e-06 2.1715441e-06)
(0.0024747871 7.4248967e-06 2.0931119e-06)
(0.0024582699 7.2960208e-06 2.0187202e-06)
(0.0024422756 7.1714401e-06 1.948069e-06)
(0.0024267775 7.0509287e-06 1.8808983e-06)
(0.0024117506 6.9343777e-06 1.8169526e-06)
(0.0023971715 6.8214901e-06 1.7560019e-06)
(0.0023830185 6.711956e-06 1.6978525e-06)
(0.0023692714 6.6055389e-06 1.6423275e-06)
(0.0023559116 6.5020455e-06 1.5892725e-06)
(0.0023429214 6.4013085e-06 1.5385386e-06)
(0.0023302844 6.3031808e-06 1.4899941e-06)
(0.0023179851 6.2075243e-06 1.4435168e-06)
(0.0023060089 6.114204e-06 1.3989939e-06)
(0.0022943424 6.0230687e-06 1.3563259e-06)
(0.0022829727 5.9340584e-06 1.3154152e-06)
(0.0022718877 5.8471298e-06 1.2761706e-06)
(0.002261076 5.7622046e-06 1.2385026e-06)
(0.0022505267 5.6791992e-06 1.2023313e-06)
(0.0022402296 5.5980423e-06 1.1675825e-06)
(0.0022301752 5.5186727e-06 1.1341881e-06)
(0.0022203542 5.441031e-06 1.1020817e-06)
(0.002210758 5.3650625e-06 1.0711994e-06)
(0.0022013784 5.2907164e-06 1.0414856e-06)
(0.0021922076 5.217949e-06 1.0128821e-06)
(0.0021832381 5.1467101e-06 9.8533744e-07)
(0.0021744628 5.0769586e-06 9.5880223e-07)
(0.0021658752 5.0086496e-06 9.3322984e-07)
(0.0021574688 4.9417458e-06 9.0857387e-07)
(0.0021492375 4.8761995e-06 8.8479029e-07)
(0.0021411756 4.8119672e-06 8.6183853e-07)
(0.0021332776 4.7489977e-06 8.3967928e-07)
(0.0021255383 4.68724e-06 8.1827154e-07)
(0.0021179527 4.6266222e-06 7.9757738e-07)
(0.0021105161 4.5670676e-06 7.7756091e-07)
(0.0021032242 4.5084811e-06 7.5818449e-07)
(0.0020960727 4.450755e-06 7.3941092e-07)
(0.0020890577 4.3937764e-06 7.212038e-07)
(0.0020821756 4.3374557e-06 7.0352146e-07)
(0.002075423 4.2818113e-06 6.8632156e-07)
(0.0020687967 4.2271336e-06 6.6956209e-07)
(0.0020622937 4.1743544e-06 6.5320327e-07)
(0.002055911 4.125815e-06 6.3726198e-07)
(0.0020496453 4.0868294e-06 6.2198499e-07)
(0.0020434926 4.0687786e-06 6.0874742e-07)
(0.0020374483 4.0948775e-06 6.0452215e-07)
(0.0020315149 4.2094263e-06 6.398781e-07)
(0.0020256647 4.4797483e-06 7.1688399e-07)
(0.0020144539 4.9057763e-06 2.2695251e-06)
(0.0094902877 9.6726608e-05 0.00022289229)
(0.00917661 0.00016632333 0.00026788105)
(0.0087449456 0.00019969046 0.00025550648)
(0.0082664657 0.00021101604 0.00023762681)
(0.00781215 0.0002109939 0.0002181603)
(0.0073950862 0.0002028236 0.00019646328)
(0.0070087986 0.00018827265 0.00017418493)
(0.006648835 0.00016968865 0.0001528463)
(0.0063142174 0.00014929331 0.00013312182)
(0.0060045996 0.00012875288 0.0001152379)
(0.0057192201 0.00010923292 9.9256792e-05)
(0.0054570682 9.1490072e-05 8.514891e-05)
(0.0052170782 7.59234e-05 7.2816211e-05)
(0.0049981259 6.2643331e-05 6.2119133e-05)
(0.0047989841 5.1561152e-05 5.2900048e-05)
(0.0046183234 4.2472278e-05 4.4997976e-05)
(0.0044547458 3.5118725e-05 3.8256897e-05)
(0.0043068267 2.9230544e-05 3.2530441e-05)
(0.0041731526 2.4550834e-05 2.7684339e-05)
(0.0040523509 2.0849111e-05 2.3597362e-05)
(0.0039431142 1.7926912e-05 2.0161345e-05)
(0.0038442168 1.5618599e-05 1.7280681e-05)
(0.0037545253 1.3789366e-05 1.4871531e-05)
(0.0036730042 1.2331758e-05 1.2860861e-05)
(0.0035987172 1.1161539e-05 1.1185211e-05)
(0.0035308247 1.0213368e-05 9.7889736e-06)
(0.0034685786 9.4380836e-06 8.6250707e-06)
(0.0034113173 8.7971281e-06 7.654315e-06)
(0.0033584589 8.2627221e-06 6.8439393e-06)
(0.0033094933 7.8140839e-06 6.1664548e-06)
(0.0032639753 7.4348248e-06 5.5988449e-06)
(0.0032215172 7.1121304e-06 5.1219264e-06)
(0.0031817817 6.8360972e-06 4.7197276e-06)
(0.0031444758 6.5990215e-06 4.3789727e-06)
(0.0031093448 6.3947807e-06 4.0886798e-06)
(0.0030761678 6.2184066e-06 3.8397975e-06)
(0.0030447526 6.0657974e-06 3.6248786e-06)
(0.003014932 5.9335289e-06 3.4378182e-06)
(0.0029865602 5.8186958e-06 3.2736193e-06)
(0.0029595097 5.7188187e-06 3.1282055e-06)
(0.002933669 5.63175e-06 2.9982608e-06)
(0.0029089401 5.5556278e-06 2.8810968e-06)
(0.0028852364 5.488825e-06 2.7745326e-06)
(0.0028624815 5.4299132e-06 2.6768091e-06)
(0.0028406075 5.3776434e-06 2.5865049e-06)
(0.0028195538 5.3309232e-06 2.5024727e-06)
(0.0027992664 5.2888093e-06 2.4237897e-06)
(0.0027796963 5.250482e-06 2.3497104e-06)
(0.0027607998 5.2152424e-06 2.2796371e-06)
(0.002742537 5.1824981e-06 2.2130834e-06)
(0.0027248717 5.1517653e-06 2.1496551e-06)
(0.0027077708 5.122668e-06 2.0890231e-06)
(0.0026912041 5.0948944e-06 2.0309209e-06)
(0.0026751435 5.0680865e-06 1.9751368e-06)
(0.0026595636 5.0410658e-06 1.921539e-06)
(0.0026444411 5.0142592e-06 1.8699671e-06)
(0.002629754 4.9880186e-06 1.8202523e-06)
(0.0026154815 4.9620716e-06 1.7722791e-06)
(0.0026016045 4.9361406e-06 1.7259609e-06)
(0.0025881054 4.9100848e-06 1.6812149e-06)
(0.0025749674 4.8838328e-06 1.6379667e-06)
(0.002562175 4.8573386e-06 1.5961454e-06)
(0.0025497136 4.8305814e-06 1.5556934e-06)
(0.0025375693 4.8035397e-06 1.5165478e-06)
(0.0025257292 4.7761771e-06 1.4786607e-06)
(0.002514181 4.7483834e-06 1.4419865e-06)
(0.0025029134 4.7202756e-06 1.4064829e-06)
(0.0024919154 4.6919154e-06 1.3721019e-06)
(0.0024811765 4.6632914e-06 1.3387974e-06)
(0.002470687 4.6344024e-06 1.3065296e-06)
(0.0024604377 4.6052671e-06 1.2752604e-06)
(0.0024504197 4.5759094e-06 1.2449553e-06)
(0.0024406247 4.5463463e-06 1.2155761e-06)
(0.0024310448 4.5166018e-06 1.1870937e-06)
(0.0024216723 4.4866951e-06 1.1594739e-06)
(0.0024125001 4.4566511e-06 1.1326837e-06)
(0.0024035213 4.4264891e-06 1.1066974e-06)
(0.0023947295 4.3962297e-06 1.0814825e-06)
(0.0023861184 4.3658905e-06 1.0570128e-06)
(0.0023776821 4.3354876e-06 1.0332595e-06)
(0.0023694149 4.3050335e-06 1.0101952e-06)
(0.0023613115 4.2745364e-06 9.8779534e-07)
(0.0023533667 4.243994e-06 9.6603094e-07)
(0.0023455757 4.2133969e-06 9.4487426e-07)
(0.0023379338 4.1827211e-06 9.2429965e-07)
(0.0023304365 4.1519266e-06 9.0427554e-07)
(0.0023230798 4.1209536e-06 8.8477234e-07)
(0.0023158598 4.0897243e-06 8.6575198e-07)
(0.0023087726 4.0581576e-06 8.4717288e-07)
(0.002301815 4.0261918e-06 8.2898088e-07)
(0.0022949838 3.9938761e-06 8.111072e-07)
(0.0022882766 3.9615326e-06 7.9346288e-07)
(0.002281691 3.9300791e-06 7.7594412e-07)
(0.0022752261 3.9016918e-06 7.5847848e-07)
(0.002268882 3.8809404e-06 7.4124752e-07)
(0.0022626608 3.8766486e-06 7.2572683e-07)
(0.0022565686 3.9043048e-06 7.1957895e-07)
(0.0022506189 3.9866567e-06 7.5579912e-07)
(0.0022447715 4.1391005e-06 8.4931666e-07)
(0.002233564 4.2832243e-06 2.4122101e-06)
(0.0094843561 6.6886587e-05 0.00022303624)
(0.0091549219 0.00011904886 0.00026838771)
(0.0087072816 0.00014772497 0.00025588053)
(0.0082191888 0.00015892952 0.00023765677)
(0.0077602858 0.00016026049 0.00021787143)
(0.0073412804 0.00015505102 0.00019586613)
(0.0069552494 0.00014481701 0.00017327438)
(0.0065978366 0.00013121474 0.00015165024)
(0.0062677954 0.00011592881 0.00013169211)
(0.0059642872 0.00010028521 0.0001136244)
(0.0056860598 8.5214432e-05 9.7497522e-05)
(0.0054316726 7.1330409e-05 8.3272195e-05)
(0.0051997008 5.8984298e-05 7.0844882e-05)
(0.0049887459 4.8311755e-05 6.0073373e-05)
(0.0047973943 3.9291584e-05 5.0798892e-05)
(0.0046242055 3.1804354e-05 4.2859903e-05)
(0.0044677269 2.5679086e-05 3.6099808e-05)
(0.0043265179 2.0725784e-05 3.037129e-05)
(0.0041991724 1.6756344e-05 2.5538702e-05)
(0.004084339 1.3596838e-05 2.1479083e-05)
(0.0039807371 1.1093753e-05 1.8082323e-05)
(0.0038871692 9.1161625e-06 1.525079e-05)
(0.0038025288 7.5553793e-06 1.2898646e-05)
(0.003725804 6.3231338e-06 1.0950986e-05)
(0.0036560786 5.3488178e-06 9.3426785e-06)
(0.0035925304 4.5751814e-06 8.0166135e-06)
(0.0035344253 3.9620997e-06 6.9239482e-06)
(0.0034811131 3.4726278e-06 6.0250736e-06)
(0.0034320221 3.0815208e-06 5.2862634e-06)
(0.0033866501 2.7702773e-06 4.6792106e-06)
(0.0033445586 2.5236743e-06 4.1805217e-06)
(0.0033053662 2.3295864e-06 3.7707533e-06)
(0.0032687419 2.1784969e-06 3.4337455e-06)
(0.0032343982 2.0629044e-06 3.156111e-06)
(0.0032020863 1.9768074e-06 2.9267971e-06)
(0.0031715907 1.9153171e-06 2.7367035e-06)
(0.0031427248 1.8743797e-06 2.5783556e-06)
(0.0031153267 1.8506058e-06 2.4456289e-06)
(0.0030892563 1.8411239e-06 2.3335234e-06)
(0.0030643915 1.8434984e-06 2.2379668e-06)
(0.003040626 1.8556453e-06 2.1556636e-06)
(0.0030178671 1.8757815e-06 2.0839518e-06)
(0.0029960335 1.9023814e-06 2.0206944e-06)
(0.0029750538 1.9341339e-06 1.9641812e-06)
(0.0029548648 1.9699142e-06 1.9130519e-06)
(0.0029354109 2.0087625e-06 1.8662267e-06)
(0.0029166424 2.0498582e-06 1.8228521e-06)
(0.0028985148 2.0925082e-06 1.7822583e-06)
(0.0028809886 2.1361375e-06 1.7439143e-06)
(0.0028640277 2.1802716e-06 1.7074097e-06)
(0.0028476 2.2245509e-06 1.6724149e-06)
(0.0028316758 2.2687609e-06 1.638655e-06)
(0.0028162284 2.3128932e-06 1.6058722e-06)
(0.0028012324 2.3570803e-06 1.5738236e-06)
(0.0027866658 2.3978703e-06 1.5431887e-06)
(0.0027725089 2.4362338e-06 1.5136863e-06)
(0.0027587418 2.47344e-06 1.484888e-06)
(0.002745346 2.5095334e-06 1.4567009e-06)
(0.002732305 2.5443493e-06 1.4291162e-06)
(0.0027196032 2.5777719e-06 1.4021113e-06)
(0.0027072261 2.6097245e-06 1.3756642e-06)
(0.0026951602 2.6401659e-06 1.349756e-06)
(0.0026833928 2.6690888e-06 1.3243745e-06)
(0.0026719116 2.6965057e-06 1.2995088e-06)
(0.0026607054 2.7223742e-06 1.2751528e-06)
(0.0026497635 2.7463547e-06 1.2513137e-06)
(0.002639076 2.7689076e-06 1.2279783e-06)
(0.0026286333 2.7901456e-06 1.2051291e-06)
(0.0026184262 2.8099932e-06 1.1827618e-06)
(0.0026084461 2.828432e-06 1.1608705e-06)
(0.0025986849 2.8454933e-06 1.1394491e-06)
(0.0025891348 2.8612186e-06 1.1184915e-06)
(0.0025797885 2.8756497e-06 1.0979866e-06)
(0.002570639 2.8888315e-06 1.0779291e-06)
(0.0025616795 2.9008061e-06 1.0583096e-06)
(0.0025529038 2.9116193e-06 1.0391189e-06)
(0.0025443058 2.9213148e-06 1.0203489e-06)
(0.0025358796 2.9299311e-06 1.0019903e-06)
(0.0025276198 2.9375085e-06 9.8403247e-07)
(0.002519521 2.9440792e-06 9.6646475e-07)
(0.0025115783 2.9496803e-06 9.4927878e-07)
(0.0025037869 2.9543374e-06 9.3246098e-07)
(0.0024961421 2.9580682e-06 9.1600043e-07)
(0.0024886396 2.9608815e-06 8.9988068e-07)
(0.0024812752 2.9627736e-06 8.8408522e-07)
(0.002474045 2.9637216e-06 8.6859378e-07)
(0.0024669452 2.9636867e-06 8.5338154e-07)
(0.0024599723 2.9626122e-06 8.3841371e-07)
(0.0024531231 2.9604309e-06 8.2364344e-07)
(0.0024463945 2.9570977e-06 8.0900382e-07)
(0.0024397839 2.9526514e-06 7.9439904e-07)
(0.0024332895 2.9473529e-06 7.7969425e-07)
(0.0024269099 2.9419153e-06 7.6470929e-07)
(0.0024206457 2.9379229e-06 7.4926044e-07)
(0.0024144993 2.9384196e-06 7.3336562e-07)
(0.0024084767 2.948497e-06 7.1826427e-07)
(0.0024025877 2.9751252e-06 7.1113218e-07)
(0.002396846 3.0234626e-06 7.433136e-07)
(0.0023911946 3.0808304e-06 8.3046641e-07)
(0.0023803644 3.0574245e-06 2.2999443e-06)
(0.0094810492 4.4090136e-05 0.00022308885)
(0.0091422796 7.9975483e-05 0.00026874495)
(0.0086839084 0.00010160921 0.00025628771)
(0.0081880903 0.00011101591 0.00023793456)
(0.0077246858 0.00011275118 0.00021798622)
(0.0073029895 0.00010953687 0.00019578738)
(0.0069155191 0.00010266029 0.00017296032)
(0.0065579578 9.3267236e-05 0.0001510852)
(0.006229001 8.2539593e-05 0.00013089045)
(0.005927585 7.1446831e-05 0.00011261412)
(0.0056522063 6.0673359e-05 9.6309239e-05)
(0.0054012005 5.0670809e-05 8.1936268e-05)
(0.0051729477 4.1706609e-05 6.9390832e-05)
(0.004965887 3.3898117e-05 5.8529097e-05)
(0.0047784814 2.7249955e-05 4.9189879e-05)
(0.0046092054 2.1693072e-05 4.1208773e-05)
(0.0044565535 1.7117436e-05 3.4426144e-05)
(0.0043190553 1.3395517e-05 2.8691659e-05)
(0.0041952917 1.0397812e-05 2.3866804e-05)
(0.0040839086 8.0023321e-06 1.9826012e-05)
(0.0039836292 6.0997697e-06 1.645686e-05)
(0.0038932634 4.5956612e-06 1.3659716e-05)
(0.0038117126 3.4106727e-06 1.1347013e-05)
(0.0037379734 2.4799297e-06 9.4422913e-06)
(0.0036711359 1.7515115e-06 7.8790895e-06)
(0.0036103859 1.1749049e-06 6.6010324e-06)
(0.0035549935 7.2234055e-07 5.5561205e-06)
(0.0035043108 3.7342636e-07 4.7060698e-06)
(0.0034577717 1.0569799e-07 4.0163444e-06)
(0.0034148763 -9.9089367e-08 3.4574146e-06)
(0.0033751872 -2.5333576e-07 3.0054956e-06)
(0.0033383243 -3.664002e-07 2.6409742e-06)
(0.0033039576 -4.4578059e-07 2.3475729e-06)
(0.0032718009 -4.9748564e-07 2.111827e-06)
(0.0032416065 -5.2634762e-07 1.922642e-06)
(0.0032131599 -5.3631077e-07 1.7709146e-06)
(0.0031862758 -5.3064082e-07 1.6492024e-06)
(0.0031607936 -5.1206306e-07 1.5514403e-06)
(0.0031365743 -4.8287182e-07 1.4727099e-06)
(0.0031134976 -4.4500732e-07 1.409033e-06)
(0.0030914586 -4.0011075e-07 1.3572055e-06)
(0.0030703663 -3.4957897e-07 1.3146567e-06)
(0.0030501409 -2.945952e-07 1.2793304e-06)
(0.0030307129 -2.3616978e-07 1.2495915e-06)
(0.0030120207 -1.7516717e-07 1.2241393e-06)
(0.0029940105 -1.1232103e-07 1.2019518e-06)
(0.0029766343 -4.8267881e-08 1.1822237e-06)
(0.0029598495 1.6449076e-08 1.1643222e-06)
(0.0029436181 8.1355577e-08 1.1477527e-06)
(0.002927906 1.460246e-07 1.1321252e-06)
(0.0029126825 2.1005766e-07 1.1171183e-06)
(0.0028979201 2.7304941e-07 1.1024385e-06)
(0.0028835935 3.3454127e-07 1.0876616e-06)
(0.0028696773 3.9432401e-07 1.072204e-06)
(0.0028561514 4.5704801e-07 1.0590092e-06)
(0.0028429997 5.2059787e-07 1.0472568e-06)
(0.0028302035 5.8225258e-07 1.0356068e-06)
(0.0028177449 6.4163852e-07 1.0238002e-06)
(0.0028056084 6.99019e-07 1.0118736e-06)
(0.0027937799 7.5456078e-07 9.998682e-07)
(0.0027822461 8.0835049e-07 9.8781055e-07)
(0.0027709946 8.6046873e-07 9.7571925e-07)
(0.0027600137 9.1102661e-07 9.6360242e-07)
(0.0027492926 9.6019709e-07 9.5144697e-07)
(0.0027388207 1.0080062e-06 9.3926648e-07)
(0.0027285887 1.0528502e-06 9.2746462e-07)
(0.0027185878 1.0958662e-06 9.1582895e-07)
(0.0027088089 1.1374993e-06 9.0425335e-07)
(0.0026992438 1.1777677e-06 8.9275988e-07)
(0.0026898847 1.216657e-06 8.8136616e-07)
(0.0026807244 1.2541697e-06 8.7008001e-07)
(0.0026717559 1.2903144e-06 8.5890642e-07)
(0.0026629726 1.3251085e-06 8.4785297e-07)
(0.0026543682 1.3585749e-06 8.36923e-07)
(0.0026459367 1.3907408e-06 8.2612257e-07)
(0.0026376723 1.4216355e-06 8.1545274e-07)
(0.0026295698 1.4512908e-06 8.0491965e-07)
(0.0026216238 1.4797326e-06 7.9452226e-07)
(0.0026138294 1.5069917e-06 7.8426252e-07)
(0.002606182 1.5330928e-06 7.7413919e-07)
(0.0025986769 1.5580623e-06 7.6415132e-07)
(0.0025913099 1.5819202e-06 7.5429475e-07)
(0.0025840769 1.6046806e-06 7.4456515e-07)
(0.0025769739 1.6263501e-06 7.3495327e-07)