/*--------------------------------*- C++ -*----------------------------------*\
  =========                 |
  \\      /  F ield         | OpenFOAM: The Open Source CFD Toolbox
   \\    /   O peration     | Website:  https://openfoam.org
    \\  /    A nd           | Version:  7
     \\/     M anipulation  |
\*---------------------------------------------------------------------------*/
FoamFile
{
    version     2.0;
    format      ascii;
    class       volVectorField;
    location    "1150/water";
    object      U;
}
// * * * * * * * * * * * * * * * * * * * * * * * * * * * * * * * * * * * * * //

dimensions      [0 1 -1 0 0 0 0];

internalField   nonuniform List<vector> 
54000
(
(0.0090020934 0.00020305973 0.00020444027)
(0.0083186447 0.00023622738 0.00023904411)
(0.0073695241 0.00021363852 0.00021763527)
(0.0063566114 0.00018488016 0.00018965819)
(0.0054486673 0.00015530836 0.00016048633)
(0.0046741594 0.00012529952 0.00013052937)
(0.0040193038 9.705261e-05 0.00010203017)
(0.0034740067 7.2578999e-05 7.7073288e-05)
(0.0030302461 5.2876127e-05 5.6738328e-05)
(0.0026757323 3.8068151e-05 4.1216512e-05)
(0.0023947254 2.7637703e-05 3.003714e-05)
(0.0021713898 2.0689034e-05 2.2336508e-05)
(0.0019919695 1.623616e-05 1.7152703e-05)
(0.0018455015 1.3416236e-05 1.3643172e-05)
(0.0017237326 1.1582489e-05 1.1179121e-05)
(0.0016206928 1.0304891e-05 9.3455813e-06)
(0.0015321593 9.3257902e-06 7.8957153e-06)
(0.0014551546 8.5052966e-06 6.69531e-06)
(0.0013875459 7.7746342e-06 5.6760579e-06)
(0.0013277612 7.1034277e-06 4.803486e-06)
(0.001274601 6.4798492e-06 4.0581561e-06)
(0.0012271179 5.8999456e-06 3.4261579e-06)
(0.0011845424 5.3625307e-06 2.8950717e-06)
(0.001146235 4.8670216e-06 2.4526289e-06)
(0.0011116558 4.4125993e-06 2.0869766e-06)
(0.0010803434 3.998013e-06 1.7867451e-06)
(0.0010519002 3.6214608e-06 1.5416124e-06)
(0.0010259819 3.2805941e-06 1.3421852e-06)
(0.001002289 2.9733958e-06 1.1797305e-06)
(0.00098056199 2.69795e-06 1.0463194e-06)
(0.00096057572 2.4519212e-06 9.3658886e-07)
(0.00094213242 2.2325663e-06 8.4693348e-07)
(0.00092505792 2.0373864e-06 7.7316604e-07)
(0.00090920047 1.8640893e-06 7.1184207e-07)
(0.00089442818 1.7104626e-06 6.6046849e-07)
(0.0008806259 1.574383e-06 6.1707423e-07)
(0.00086769295 1.4538611e-06 5.8005388e-07)
(0.00085554128 1.3470714e-06 5.481141e-07)
(0.00084409387 1.2523495e-06 5.2023866e-07)
(0.00083328322 1.1681979e-06 4.9562685e-07)
(0.00082305015 1.0932618e-06 4.7365291e-07)
(0.00081334267 1.0262302e-06 4.5378289e-07)
(0.00080411486 9.6585865e-07 4.3554434e-07)
(0.00079532615 9.1131029e-07 4.1865095e-07)
(0.0007869407 8.6191747e-07 4.0290659e-07)
(0.00077892675 8.1708249e-07 3.8816773e-07)
(0.00077125603 7.762768e-07 3.7432118e-07)
(0.0007639033 7.3902581e-07 3.6127658e-07)
(0.00075684598 7.0491439e-07 3.489648e-07)
(0.00075006373 6.7357503e-07 3.3733083e-07)
(0.00074353822 6.4469317e-07 3.2633687e-07)
(0.00073725294 6.1802521e-07 3.1581836e-07)
(0.00073119314 5.9334755e-07 3.0574414e-07)
(0.00072534528 5.7041907e-07 2.9621074e-07)
(0.00071969687 5.4902497e-07 2.8716616e-07)
(0.00071423653 5.2901463e-07 2.785432e-07)
(0.00070895386 5.1027355e-07 2.70311e-07)
(0.00070383928 4.9268718e-07 2.624491e-07)
(0.00069888397 4.7614511e-07 2.5493251e-07)
(0.00069407976 4.6054962e-07 2.4774367e-07)
(0.00068941911 4.4582016e-07 2.4086372e-07)
(0.00068489502 4.3188508e-07 2.3427588e-07)
(0.00068050098 4.1867934e-07 2.2796361e-07)
(0.00067623091 4.061472e-07 2.21912e-07)
(0.00067207915 3.9423529e-07 2.1610543e-07)
(0.00066804042 3.8289639e-07 2.1053168e-07)
(0.00066410976 3.7209482e-07 2.0517792e-07)
(0.00066028251 3.6179404e-07 2.0003253e-07)
(0.00065655429 3.5196329e-07 1.9508235e-07)
(0.00065292099 3.4256977e-07 1.9031829e-07)
(0.00064937872 3.3358663e-07 1.8573006e-07)
(0.00064592384 3.2498781e-07 1.8130614e-07)
(0.00064255288 3.1675125e-07 1.7704133e-07)
(0.00063926261 3.0885676e-07 1.7292481e-07)
(0.00063604992 3.0128315e-07 1.689511e-07)
(0.00063291192 2.9401348e-07 1.6511094e-07)
(0.00062984582 2.8703137e-07 1.6139757e-07)
(0.00062684904 2.8032142e-07 1.5780307e-07)
(0.00062391907 2.7387059e-07 1.5432076e-07)
(0.00062105358 2.676651e-07 1.5094247e-07)
(0.00061825035 2.6169433e-07 1.4766108e-07)
(0.00061550726 2.5594504e-07 1.4446874e-07)
(0.00061282235 2.5040712e-07 1.41359e-07)
(0.00061019373 2.4506854e-07 1.3832429e-07)
(0.00060761964 2.3991928e-07 1.3535535e-07)
(0.00060509845 2.3494622e-07 1.3244853e-07)
(0.00060262862 2.3013421e-07 1.2959885e-07)
(0.00060020873 2.2546928e-07 1.2680419e-07)
(0.00059783744 2.2093173e-07 1.2407566e-07)
(0.00059551348 2.1649874e-07 1.2143387e-07)
(0.00059323555 2.1214976e-07 1.1892984e-07)
(0.00059100214 2.0787195e-07 1.1666269e-07)
(0.00058881114 2.0369065e-07 1.1483008e-07)
(0.00058665898 1.9973093e-07 1.1381999e-07)
(0.0005845387 1.9638418e-07 1.1441024e-07)
(0.00058243501 1.9487317e-07 1.1837341e-07)
(0.00058031396 1.9977514e-07 1.309438e-07)
(0.0005781161 2.2258406e-07 1.6397653e-07)
(0.00057566369 1.9706857e-07 1.5080603e-07)
(0.00056906201 7.8896307e-07 7.5322604e-07)
(0.0095316863 0.0003313754 0.00022336697)
(0.0092716504 0.00041105942 0.00027052342)
(0.0087756651 0.00040317187 0.00026060062)
(0.0081527518 0.00038218754 0.00024252081)
(0.0075302151 0.00035309574 0.00022101124)
(0.0069425889 0.00031541062 0.00019648834)
(0.006391209 0.00027309198 0.00017102969)
(0.0058791845 0.00023030694 0.00014652546)
(0.0054120202 0.00019001855 0.00012410997)
(0.0049926512 0.00015423459 0.00010436627)
(0.004620592 0.00012408347 8.7479018e-05)
(0.0042931332 9.9809403e-05 7.3327495e-05)
(0.0040063965 8.0956424e-05 6.1601503e-05)
(0.0037559538 6.667221e-05 5.1918794e-05)
(0.0035372541 5.5985799e-05 4.3907444e-05)
(0.003345947 4.7992055e-05 3.7246645e-05)
(0.0031780884 4.1941709e-05 3.1677529e-05)
(0.0030302311 3.7262445e-05 2.699792e-05)
(0.0028994324 3.3540997e-05 2.3051139e-05)
(0.0027832152 3.0490243e-05 1.9714593e-05)
(0.0026795075 2.7915733e-05 1.6890543e-05)
(0.0025865783 2.568784e-05 1.4499382e-05)
(0.002502978 2.3720892e-05 1.2475015e-05)
(0.0024274871 2.1958431e-05 1.0761724e-05)
(0.0023590736 2.0362993e-05 9.312232e-06)
(0.0022968589 1.8909453e-05 8.0861278e-06)
(0.0022400906 1.7580768e-05 7.0489623e-06)
(0.0021881216 1.6364898e-05 6.1714981e-06)
(0.0021403932 1.5251963e-05 5.4283145e-06)
(0.0020964214 1.423385e-05 4.79735e-06)
(0.0020557868 1.330304e-05 4.2604821e-06)
(0.0020181236 1.2451985e-05 3.8027043e-06)
(0.0019831119 1.1673908e-05 3.4109602e-06)
(0.0019504718 1.0962756e-05 3.0744202e-06)
(0.0019199589 1.0312854e-05 2.7842604e-06)
(0.0018913593 9.7188339e-06 2.5331806e-06)
(0.0018644851 9.1756435e-06 2.3150735e-06)
(0.0018391716 8.6785724e-06 2.1248313e-06)
(0.0018152735 8.2232423e-06 1.9581839e-06)
(0.0017926629 7.8056199e-06 1.8115678e-06)
(0.0017712268 7.4219973e-06 1.6820112e-06)
(0.001750865 7.0689382e-06 1.5670704e-06)
(0.0017314886 6.743269e-06 1.4647428e-06)
(0.0017130186 6.4422716e-06 1.3732749e-06)
(0.0016953848 6.1635575e-06 1.2911579e-06)
(0.0016785241 5.904978e-06 1.2171183e-06)
(0.00166238 5.6646099e-06 1.1500843e-06)
(0.0016469019 5.440725e-06 1.0891493e-06)
(0.001632044 5.231777e-06 1.0335527e-06)
(0.0016177648 5.0363841e-06 9.8265396e-07)
(0.0016040271 4.8533219e-06 9.3589355e-07)
(0.0015907965 4.6815621e-06 8.9273703e-07)
(0.0015780424 4.5201566e-06 8.5278596e-07)
(0.0015657364 4.3681536e-06 8.1577059e-07)
(0.0015538526 4.2246821e-06 7.8138529e-07)
(0.0015423672 4.0890602e-06 7.4934517e-07)
(0.0015312583 3.960728e-06 7.1941185e-07)
(0.0015205058 3.839152e-06 6.9138768e-07)
(0.0015100909 3.7238121e-06 6.6509438e-07)
(0.0014999963 3.6142422e-06 6.4037928e-07)
(0.0014902061 3.5100288e-06 6.1710784e-07)
(0.0014807053 3.4107988e-06 5.9515948e-07)
(0.00147148 3.3162131e-06 5.7442811e-07)
(0.0014625175 3.2259607e-06 5.5481506e-07)
(0.0014538055 3.1397557e-06 5.3623628e-07)
(0.0014453328 3.0573349e-06 5.1861441e-07)
(0.0014370889 2.9784701e-06 5.018784e-07)
(0.0014290637 2.9029577e-06 4.859678e-07)
(0.001421248 2.8306037e-06 4.7082288e-07)
(0.001413633 2.7612185e-06 4.5639257e-07)
(0.0014062103 2.6946344e-06 4.4262924e-07)
(0.0013989723 2.6306906e-06 4.294876e-07)
(0.0013919116 2.5692451e-06 4.1693048e-07)
(0.0013850211 2.5101629e-06 4.0492093e-07)
(0.0013782945 2.4533188e-06 3.9342485e-07)
(0.0013717253 2.3985952e-06 3.8241173e-07)
(0.0013653078 2.3458853e-06 3.7185148e-07)
(0.0013590364 2.2950869e-06 3.6171782e-07)
(0.0013529058 2.2461043e-06 3.519842e-07)
(0.001346911 2.1988502e-06 3.4262644e-07)
(0.0013410472 2.153242e-06 3.33621e-07)
(0.0013353099 2.1091951e-06 3.249447e-07)
(0.001329695 2.0666367e-06 3.1657916e-07)
(0.0013241983 2.0254875e-06 3.0850072e-07)
(0.001318816 1.985673e-06 3.0068995e-07)
(0.0013135446 1.9471136e-06 2.9313016e-07)
(0.0013083808 1.9097253e-06 2.8580484e-07)
(0.0013033213 1.8734238e-06 2.787022e-07)
(0.0012983632 1.8381144e-06 2.7181535e-07)
(0.0012935038 1.8037138e-06 2.6515356e-07)
(0.0012887402 1.7701703e-06 2.5874326e-07)
(0.0012840698 1.7375334e-06 2.5265007e-07)
(0.0012794889 1.7061214e-06 2.4701447e-07)
(0.0012749925 1.6769086e-06 2.4211214e-07)
(0.001270572 1.6524674e-06 2.3851803e-07)
(0.0012662098 1.6393331e-06 2.3765852e-07)
(0.0012618709 1.6545765e-06 2.4458215e-07)
(0.0012574959 1.7463708e-06 2.7712469e-07)
(0.0012529717 2.0376707e-06 2.6526449e-07)
(0.0012433358 2.9514804e-06 1.3525335e-06)
(0.0095221617 0.00021179965 0.00022180581)
(0.009269783 0.00029872516 0.00026628967)
(0.0088657772 0.00031669844 0.00025526743)
(0.0083755729 0.000317438 0.00023864265)
(0.0078888426 0.00030841043 0.00021987851)
(0.0074276349 0.00028848207 0.00019850457)
(0.006988258 0.0002604839 0.00017617916)
(0.0065698164 0.00022855168 0.00015444521)
(0.0061756011 0.00019596771 0.00013413534)
(0.0058087146 0.00016504408 0.00011567593)
(0.0054706295 0.00013728621 9.9270839e-05)
(0.0051615551 0.00011345265 8.4947831e-05)
(0.0048808654 9.3684507e-05 7.2600737e-05)
(0.0046272998 7.7712987e-05 6.2044901e-05)
(0.0043991196 6.5057024e-05 5.3064543e-05)
(0.0041942886 5.5163886e-05 4.5443629e-05)
(0.0040106431 4.7493346e-05 3.8982753e-05)
(0.0038460219 4.1561375e-05 3.3506381e-05)
(0.0036983537 3.6958194e-05 2.8864075e-05)
(0.0035657105 3.3351174e-05 2.4928486e-05)
(0.0034463343 3.0479501e-05 2.1592135e-05)
(0.003338646 2.8144768e-05 1.8764099e-05)
(0.003241243 2.6200154e-05 1.6367139e-05)
(0.0031528887 2.4539751e-05 1.4335369e-05)
(0.0030724986 2.3088866e-05 1.2612489e-05)
(0.0029991252 2.1796112e-05 1.1150134e-05)
(0.0029319421 2.0626903e-05 9.9064811e-06)
(0.0028702292 1.9558163e-05 8.8458147e-06)
(0.0028133589 1.8574037e-05 7.938538e-06)
(0.0027607855 1.7663621e-05 7.1598235e-06)
(0.0027120345 1.6818832e-05 6.4890363e-06)
(0.0026666927 1.6033066e-05 5.9090214e-06)
(0.0026243991 1.5301094e-05 5.405273e-06)
(0.0025848382 1.461882e-05 4.9656527e-06)
(0.0025477347 1.3982713e-05 4.5801143e-06)
(0.0025128472 1.3389543e-05 4.2403265e-06)
(0.002479964 1.283628e-05 3.939356e-06)
(0.0024488994 1.2320058e-05 3.6714247e-06)
(0.0024194896 1.1838144e-05 3.4317257e-06)
(0.00239159 1.1387939e-05 3.2162515e-06)
(0.0023650729 1.0966985e-05 3.0216602e-06)
(0.0023398248 1.0572999e-05 2.8451742e-06)
(0.0023157449 1.0203875e-05 2.6844745e-06)
(0.0022927433 9.8575804e-06 2.537595e-06)
(0.0022707398 9.5322158e-06 2.4028641e-06)
(0.002249662 9.2260289e-06 2.2788665e-06)
(0.0022294453 8.9374178e-06 2.1643998e-06)
(0.0022100312 8.6649283e-06 2.0584378e-06)
(0.0021913666 8.4072376e-06 1.9601009e-06)
(0.0021734038 8.1631548e-06 1.8686323e-06)
(0.0021560989 7.9316218e-06 1.7833674e-06)
(0.0021394122 7.7117234e-06 1.7037081e-06)
(0.0021233074 7.502602e-06 1.6291513e-06)
(0.0021077512 7.30338e-06 1.5592837e-06)
(0.0020927129 7.1131874e-06 1.4937192e-06)
(0.0020781645 6.9314161e-06 1.4321045e-06)
(0.0020640799 6.7576045e-06 1.3741128e-06)
(0.0020504351 6.5912611e-06 1.3194613e-06)
(0.0020372075 6.4318789e-06 1.2678946e-06)
(0.0020243766 6.2790056e-06 1.2191868e-06)
(0.0020119231 6.1322412e-06 1.173132e-06)
(0.001999829 5.9912205e-06 1.1295431e-06)
(0.0019880776 5.8556134e-06 1.088249e-06)
(0.0019766531 5.725106e-06 1.0490947e-06)
(0.0019655411 5.5994084e-06 1.0119379e-06)
(0.0019547276 5.4782457e-06 9.7664633e-07)
(0.0019441999 5.3613893e-06 9.4310127e-07)
(0.0019339458 5.2486475e-06 9.111895e-07)
(0.0019239539 5.1398182e-06 8.808081e-07)
(0.0019142135 5.0347016e-06 8.5185926e-07)
(0.0019047144 4.9331195e-06 8.2425923e-07)
(0.001895447 4.8349004e-06 7.9792479e-07)
(0.0018864023 4.7398901e-06 7.7278106e-07)
(0.0018775718 4.6479434e-06 7.4875807e-07)
(0.0018689473 4.5589222e-06 7.2578856e-07)
(0.0018605211 4.4726999e-06 7.0381422e-07)
(0.0018522861 4.3891538e-06 6.8277832e-07)
(0.0018442353 4.30817e-06 6.6262497e-07)
(0.0018363621 4.2296386e-06 6.4330727e-07)
(0.0018286604 4.1534582e-06 6.2477695e-07)
(0.0018211241 4.0795293e-06 6.0698891e-07)
(0.0018137478 4.007753e-06 5.8990029e-07)
(0.0018065261 3.9380354e-06 5.7347306e-07)
(0.001799454 3.8702781e-06 5.5766721e-07)
(0.0017925266 3.8043811e-06 5.4244625e-07)
(0.0017857396 3.7402365e-06 5.2777812e-07)
(0.0017790885 3.6777258e-06 5.1362797e-07)
(0.0017725695 3.616726e-06 4.9996896e-07)
(0.0017661787 3.5571065e-06 4.8677502e-07)
(0.0017599128 3.4987607e-06 4.7402492e-07)
(0.0017537682 3.4416536e-06 4.6171031e-07)
(0.0017477416 3.3859648e-06 4.4983625e-07)
(0.0017418294 3.3323832e-06 4.3844313e-07)
(0.0017360272 3.2827919e-06 4.2764668e-07)
(0.0017303281 3.2417779e-06 4.1776883e-07)
(0.0017247202 3.2200413e-06 4.0999109e-07)
(0.001719183 3.2421548e-06 4.0985016e-07)
(0.001713691 3.3643437e-06 4.4114407e-07)
(0.0017081999 3.7072193e-06 4.7353424e-07)
(0.0016974804 4.4611195e-06 1.8635001e-06)
(0.0095012861 0.00013951169 0.00022248511)
(0.0092133349 0.00022408324 0.00026709763)
(0.0088018509 0.0002570094 0.00025529581)
(0.0083306071 0.00026690691 0.0002382081)
(0.0078754299 0.00026502158 0.00021939837)
(0.0074527063 0.0002529565 0.00019823245)
(0.0070564396 0.00023295893 0.00017634609)
(0.0066827538 0.00020836345 0.0001552305)
(0.006331873 0.00018203353 0.00013558338)
(0.0060047052 0.00015603739 0.00011769036)
(0.0057015056 0.000131804 0.00010166909)
(0.0054220192 0.00011020724 8.7524315e-05)
(0.0051656909 9.1631899e-05 7.5171987e-05)
(0.0049316845 7.6091185e-05 6.4472618e-05)
(0.0047188814 6.3363141e-05 5.526115e-05)
(0.0045259349 5.3104941e-05 4.7366821e-05)
(0.0043513547 4.4932757e-05 4.0624899e-05)
(0.0041935865 3.847136e-05 3.4883032e-05)
(0.0040510752 3.3381245e-05 3.0003996e-05)
(0.0039223115 2.9370509e-05 2.5866182e-05)
(0.0038058643 2.6197262e-05 2.2362868e-05)
(0.0037004012 2.3666731e-05 1.9400962e-05)
(0.0036047 2.1625758e-05 1.6899612e-05)
(0.0035176529 1.9956326e-05 1.4788823e-05)
(0.0034382652 1.8569046e-05 1.3008104e-05)
(0.0033656513 1.7397362e-05 1.1504745e-05)
(0.0032990266 1.6392003e-05 1.0233524e-05)
(0.0032376995 1.5516241e-05 9.1565339e-06)
(0.0031810636 1.4743887e-05 8.2421113e-06)
(0.0031285885 1.405615e-05 7.4635743e-06)
(0.0030798115 1.3438893e-05 6.79852e-06)
(0.0030343294 1.288115e-05 6.2282224e-06)
(0.0029917905 1.2374495e-05 5.7369837e-06)
(0.0029518882 1.191242e-05 5.3116665e-06)
(0.0029143553 1.1489691e-05 4.9413535e-06)
(0.0028789586 1.1101928e-05 4.6170005e-06)
(0.0028454946 1.074538e-05 4.3311218e-06)
(0.0028137847 1.0416774e-05 4.0775276e-06)
(0.0027836727 1.0113218e-05 3.851108e-06)
(0.0027550209 9.832121e-06 3.6476458e-06)
(0.0027277081 9.5711596e-06 3.4636649e-06)
(0.002701627 9.32825e-06 3.2963016e-06)
(0.0026766823 9.1015159e-06 3.1431919e-06)
(0.0026527895 8.8892443e-06 3.0023827e-06)
(0.0026298729 8.6898914e-06 2.8722563e-06)
(0.0026078648 8.5020896e-06 2.7514716e-06)
(0.002586704 8.3246157e-06 2.6389103e-06)
(0.0025663358 8.1563957e-06 2.5336424e-06)
(0.0025467102 7.9964766e-06 2.4348853e-06)
(0.002527782 7.8440271e-06 2.3419792e-06)
(0.0025095101 7.698337e-06 2.2543619e-06)
(0.0024918566 7.5588091e-06 2.1715438e-06)
(0.0024747871 7.4248979e-06 2.0931113e-06)
(0.0024582699 7.2960211e-06 2.0187191e-06)
(0.0024422756 7.1714392e-06 1.9480688e-06)
(0.0024267775 7.0509283e-06 1.8808978e-06)
(0.0024117506 6.9343762e-06 1.8169521e-06)
(0.0023971715 6.8214893e-06 1.7560022e-06)
(0.0023830185 6.7119568e-06 1.6978518e-06)
(0.0023692714 6.6055382e-06 1.6423284e-06)
(0.0023559116 6.5020462e-06 1.5892709e-06)
(0.0023429214 6.4013093e-06 1.5385379e-06)
(0.0023302844 6.303182e-06 1.4899923e-06)
(0.0023179851 6.2075271e-06 1.4435163e-06)
(0.0023060089 6.1142046e-06 1.3989938e-06)
(0.0022943424 6.0230687e-06 1.3563252e-06)
(0.0022829727 5.934058e-06 1.315416e-06)
(0.0022718877 5.847129e-06 1.27617e-06)
(0.002261076 5.7622039e-06 1.2385008e-06)
(0.0022505267 5.6791987e-06 1.2023305e-06)
(0.0022402296 5.5980431e-06 1.1675824e-06)
(0.0022301752 5.5186727e-06 1.1341885e-06)
(0.0022203542 5.4410313e-06 1.1020814e-06)
(0.002210758 5.3650622e-06 1.0711995e-06)
(0.0022013784 5.2907167e-06 1.0414841e-06)
(0.0021922076 5.2179491e-06 1.0128806e-06)
(0.0021832381 5.1467105e-06 9.8533773e-07)
(0.0021744628 5.0769577e-06 9.5880344e-07)
(0.0021658752 5.0086512e-06 9.3322966e-07)
(0.0021574688 4.9417458e-06 9.0857438e-07)
(0.0021492375 4.8761994e-06 8.8479085e-07)
(0.0021411756 4.8119663e-06 8.6184017e-07)
(0.0021332776 4.7489986e-06 8.3967851e-07)
(0.0021255383 4.6872383e-06 8.1827127e-07)
(0.0021179527 4.6266202e-06 7.975764e-07)
(0.0021105161 4.5670664e-06 7.7755925e-07)
(0.0021032242 4.5084802e-06 7.5818342e-07)
(0.0020960727 4.4507541e-06 7.3941103e-07)
(0.0020890577 4.3937742e-06 7.212037e-07)
(0.0020821756 4.3374549e-06 7.0352039e-07)
(0.002075423 4.2818107e-06 6.8632221e-07)
(0.0020687967 4.2271343e-06 6.6956231e-07)
(0.0020622937 4.1743541e-06 6.5320351e-07)
(0.002055911 4.1258148e-06 6.372621e-07)
(0.0020496453 4.0868293e-06 6.2198549e-07)
(0.0020434926 4.068778e-06 6.0874791e-07)
(0.0020374483 4.0948766e-06 6.0452202e-07)
(0.0020315149 4.2094241e-06 6.3987842e-07)
(0.0020256647 4.4797481e-06 7.1688382e-07)
(0.0020144539 4.9057768e-06 2.2695258e-06)
(0.0094902877 9.6726607e-05 0.00022289229)
(0.00917661 0.00016632333 0.00026788105)
(0.0087449456 0.00019969046 0.00025550648)
(0.0082664657 0.00021101604 0.00023762681)
(0.00781215 0.0002109939 0.0002181603)
(0.0073950862 0.00020282359 0.00019646328)
(0.0070087986 0.00018827265 0.00017418493)
(0.006648835 0.00016968865 0.0001528463)
(0.0063142174 0.00014929331 0.00013312182)
(0.0060045996 0.00012875288 0.0001152379)
(0.0057192201 0.00010923291 9.9256792e-05)
(0.0054570682 9.1490071e-05 8.514891e-05)
(0.0052170782 7.59234e-05 7.2816211e-05)
(0.0049981259 6.264333e-05 6.2119133e-05)
(0.0047989841 5.1561151e-05 5.2900048e-05)
(0.0046183234 4.2472279e-05 4.4997977e-05)
(0.0044547458 3.5118725e-05 3.8256897e-05)
(0.0043068267 2.9230544e-05 3.2530443e-05)
(0.0041731526 2.4550834e-05 2.768434e-05)
(0.0040523509 2.0849111e-05 2.3597362e-05)
(0.0039431142 1.7926912e-05 2.0161346e-05)
(0.0038442168 1.5618599e-05 1.7280682e-05)
(0.0037545253 1.3789365e-05 1.4871531e-05)
(0.0036730042 1.2331759e-05 1.2860862e-05)
(0.0035987172 1.1161538e-05 1.1185212e-05)
(0.0035308246 1.0213366e-05 9.7889746e-06)
(0.0034685786 9.4380823e-06 8.6250711e-06)
(0.0034113173 8.7971277e-06 7.6543147e-06)
(0.0033584589 8.2627201e-06 6.8439388e-06)
(0.0033094933 7.8140817e-06 6.166454e-06)
(0.0032639753 7.434824e-06 5.5988448e-06)
(0.0032215172 7.1121287e-06 5.1219272e-06)
(0.0031817817 6.8360963e-06 4.7197284e-06)
(0.0031444758 6.5990202e-06 4.3789732e-06)
(0.0031093448 6.3947804e-06 4.088681e-06)
(0.0030761678 6.2184055e-06 3.8397978e-06)
(0.0030447526 6.0657967e-06 3.624879e-06)
(0.003014932 5.9335274e-06 3.4378174e-06)
(0.0029865602 5.8186971e-06 3.2736173e-06)
(0.0029595097 5.7188195e-06 3.1282053e-06)
(0.002933669 5.6317494e-06 2.9982613e-06)
(0.0029089401 5.5556267e-06 2.8810977e-06)
(0.0028852364 5.4888238e-06 2.7745343e-06)
(0.0028624815 5.4299135e-06 2.6768104e-06)
(0.0028406075 5.377642e-06 2.5865048e-06)
(0.0028195538 5.3309245e-06 2.5024732e-06)
(0.0027992664 5.2888089e-06 2.4237892e-06)
(0.0027796963 5.2504823e-06 2.3497115e-06)
(0.0027607998 5.2152416e-06 2.2796376e-06)
(0.002742537 5.1824974e-06 2.2130838e-06)
(0.0027248717 5.1517662e-06 2.1496543e-06)
(0.0027077708 5.1226678e-06 2.0890223e-06)
(0.0026912041 5.0948943e-06 2.03092e-06)
(0.0026751435 5.0680847e-06 1.9751355e-06)
(0.0026595636 5.0410657e-06 1.9215396e-06)
(0.0026444411 5.0142591e-06 1.869967e-06)
(0.002629754 4.9880175e-06 1.8202516e-06)
(0.0026154815 4.962072e-06 1.772279e-06)
(0.0026016045 4.936141e-06 1.7259605e-06)
(0.0025881054 4.9100848e-06 1.6812145e-06)
(0.0025749674 4.8838329e-06 1.6379657e-06)
(0.002562175 4.8573413e-06 1.5961467e-06)
(0.0025497136 4.8305821e-06 1.5556922e-06)
(0.0025375693 4.8035406e-06 1.5165482e-06)
(0.0025257292 4.7761775e-06 1.4786607e-06)
(0.002514181 4.7483848e-06 1.4419858e-06)
(0.0025029134 4.7202756e-06 1.4064834e-06)
(0.0024919154 4.6919143e-06 1.3721021e-06)
(0.0024811765 4.6632901e-06 1.3387967e-06)
(0.002470687 4.6344029e-06 1.306529e-06)
(0.0024604377 4.605269e-06 1.2752603e-06)
(0.0024504197 4.5759091e-06 1.2449547e-06)
(0.0024406247 4.5463476e-06 1.2155768e-06)
(0.0024310448 4.5166004e-06 1.1870939e-06)
(0.0024216723 4.4866952e-06 1.1594723e-06)
(0.0024125001 4.456651e-06 1.1326845e-06)
(0.0024035213 4.4264897e-06 1.1066968e-06)
(0.0023947295 4.3962285e-06 1.081483e-06)
(0.0023861184 4.365891e-06 1.0570122e-06)
(0.0023776821 4.3354892e-06 1.0332595e-06)
(0.0023694149 4.3050345e-06 1.0101958e-06)
(0.0023613115 4.2745352e-06 9.8779541e-07)
(0.0023533667 4.2439936e-06 9.6603044e-07)
(0.0023455757 4.2133956e-06 9.4487502e-07)
(0.0023379338 4.1827205e-06 9.243002e-07)
(0.0023304365 4.1519258e-06 9.0427547e-07)
(0.0023230798 4.120952e-06 8.8477163e-07)
(0.0023158598 4.0897234e-06 8.6575126e-07)
(0.0023087726 4.0581558e-06 8.4717244e-07)
(0.002301815 4.0261902e-06 8.2898104e-07)
(0.0022949838 3.9938763e-06 8.1110787e-07)
(0.0022882766 3.9615312e-06 7.9346298e-07)
(0.002281691 3.9300773e-06 7.7594339e-07)
(0.0022752261 3.9016914e-06 7.584777e-07)
(0.002268882 3.8809401e-06 7.4124599e-07)
(0.0022626608 3.8766478e-06 7.2572622e-07)
(0.0022565686 3.9043038e-06 7.1957937e-07)
(0.0022506189 3.9866532e-06 7.5579973e-07)
(0.0022447715 4.1390995e-06 8.4931766e-07)
(0.002233564 4.2832252e-06 2.4122119e-06)
(0.0094843561 6.6886586e-05 0.00022303624)
(0.0091549219 0.00011904886 0.00026838771)
(0.0087072816 0.00014772497 0.00025588053)
(0.0082191888 0.00015892952 0.00023765677)
(0.0077602858 0.00016026049 0.00021787143)
(0.0073412804 0.00015505102 0.00019586613)
(0.0069552494 0.00014481701 0.00017327438)
(0.0065978366 0.00013121474 0.00015165024)
(0.0062677954 0.00011592881 0.00013169211)
(0.0059642872 0.00010028521 0.0001136244)
(0.0056860598 8.5214432e-05 9.7497523e-05)
(0.0054316726 7.1330408e-05 8.3272195e-05)
(0.0051997008 5.8984299e-05 7.0844884e-05)
(0.0049887459 4.8311754e-05 6.0073373e-05)
(0.0047973943 3.9291582e-05 5.079889e-05)
(0.0046242055 3.1804354e-05 4.2859903e-05)
(0.0044677269 2.5679086e-05 3.6099808e-05)
(0.0043265179 2.0725786e-05 3.0371292e-05)
(0.0041991724 1.6756344e-05 2.5538703e-05)
(0.004084339 1.3596837e-05 2.1479084e-05)
(0.0039807371 1.1093753e-05 1.8082324e-05)
(0.0038871692 9.1161631e-06 1.525079e-05)
(0.0038025288 7.5553808e-06 1.2898646e-05)
(0.003725804 6.3231342e-06 1.0950986e-05)
(0.0036560786 5.3488185e-06 9.3426776e-06)
(0.0035925304 4.5751809e-06 8.0166132e-06)
(0.0035344253 3.9620986e-06 6.9239484e-06)
(0.0034811131 3.4726272e-06 6.0250729e-06)
(0.0034320221 3.0815197e-06 5.2862636e-06)
(0.0033866501 2.7702779e-06 4.6792099e-06)
(0.0033445586 2.5236743e-06 4.1805215e-06)
(0.0033053662 2.3295855e-06 3.7707528e-06)
(0.0032687419 2.1784977e-06 3.4337463e-06)
(0.0032343982 2.0629059e-06 3.1561122e-06)
(0.0032020863 1.9768094e-06 2.9267973e-06)
(0.0031715907 1.9153181e-06 2.7367039e-06)
(0.0031427248 1.8743804e-06 2.5783551e-06)
(0.0031153267 1.8506057e-06 2.4456283e-06)
(0.0030892563 1.8411255e-06 2.3335232e-06)
(0.0030643915 1.8434995e-06 2.2379676e-06)
(0.003040626 1.8556447e-06 2.1556651e-06)
(0.0030178671 1.8757804e-06 2.0839524e-06)
(0.0029960335 1.9023807e-06 2.0206949e-06)
(0.0029750538 1.9341331e-06 1.9641817e-06)
(0.0029548649 1.9699139e-06 1.9130528e-06)
(0.0029354109 2.0087609e-06 1.866227e-06)
(0.0029166424 2.0498582e-06 1.8228524e-06)
(0.0028985148 2.0925096e-06 1.7822573e-06)
(0.0028809886 2.1361378e-06 1.7439145e-06)
(0.0028640277 2.1802706e-06 1.7074095e-06)
(0.0028475999 2.2245507e-06 1.6724134e-06)
(0.0028316758 2.2687606e-06 1.6386541e-06)
(0.0028162284 2.3128923e-06 1.6058716e-06)
(0.0028012324 2.3570782e-06 1.5738226e-06)
(0.0027866658 2.3978722e-06 1.5431886e-06)
(0.0027725089 2.4362366e-06 1.5136876e-06)
(0.0027587418 2.4734404e-06 1.4848889e-06)
(0.002745346 2.5095342e-06 1.4567012e-06)
(0.002732305 2.5443509e-06 1.4291162e-06)
(0.0027196032 2.5777729e-06 1.4021111e-06)
(0.0027072261 2.6097243e-06 1.3756639e-06)
(0.0026951602 2.6401665e-06 1.3497558e-06)
(0.0026833928 2.6690889e-06 1.3243744e-06)
(0.0026719116 2.6965035e-06 1.2995086e-06)
(0.0026607054 2.7223737e-06 1.275153e-06)
(0.0026497635 2.7463566e-06 1.2513136e-06)
(0.002639076 2.7689082e-06 1.2279775e-06)
(0.0026286333 2.7901459e-06 1.2051283e-06)
(0.0026184262 2.8099924e-06 1.1827599e-06)
(0.0026084461 2.828432e-06 1.1608706e-06)
(0.0025986849 2.8454926e-06 1.1394497e-06)
(0.0025891348 2.8612189e-06 1.1184913e-06)
(0.0025797885 2.8756492e-06 1.0979861e-06)
(0.002570639 2.8888299e-06 1.0779289e-06)
(0.0025616795 2.9008055e-06 1.058309e-06)
(0.0025529038 2.9116191e-06 1.039119e-06)
(0.0025443058 2.9213138e-06 1.0203482e-06)
(0.0025358796 2.9299298e-06 1.0019898e-06)
(0.0025276198 2.9375066e-06 9.8403184e-07)
(0.002519521 2.9440807e-06 9.6646513e-07)
(0.0025115783 2.9496819e-06 9.4927987e-07)
(0.0025037869 2.9543376e-06 9.3246112e-07)
(0.0024961421 2.9580674e-06 9.1599946e-07)
(0.0024886396 2.9608801e-06 8.9987987e-07)
(0.0024812752 2.9627725e-06 8.8408488e-07)
(0.002474045 2.9637216e-06 8.685946e-07)
(0.0024669452 2.9636864e-06 8.5338157e-07)
(0.0024599723 2.9626109e-06 8.3841435e-07)
(0.0024531231 2.96043e-06 8.2364335e-07)
(0.0024463945 2.9570956e-06 8.0900274e-07)
(0.0024397839 2.9526506e-06 7.943992e-07)
(0.0024332895 2.9473515e-06 7.7969433e-07)
(0.0024269099 2.9419115e-06 7.6470981e-07)
(0.0024206457 2.9379215e-06 7.492604e-07)
(0.0024144993 2.9384196e-06 7.33365e-07)
(0.0024084767 2.948496e-06 7.1826485e-07)
(0.0024025877 2.9751245e-06 7.111333e-07)
(0.002396846 3.0234603e-06 7.433132e-07)
(0.0023911946 3.0808293e-06 8.3046589e-07)
(0.0023803644 3.0574252e-06 2.2999436e-06)
(0.0094810492 4.4090134e-05 0.00022308885)
(0.0091422796 7.9975481e-05 0.00026874495)
(0.0086839084 0.00010160921 0.00025628771)
(0.0081880903 0.00011101591 0.00023793456)
(0.0077246858 0.00011275117 0.00021798622)
(0.0073029895 0.00010953687 0.00019578738)
(0.0069155191 0.00010266029 0.00017296032)
(0.0065579578 9.3267236e-05 0.0001510852)
(0.006229001 8.2539593e-05 0.00013089045)
(0.005927585 7.1446833e-05 0.00011261412)
(0.0056522063 6.0673361e-05 9.630924e-05)
(0.0054012005 5.0670809e-05 8.1936268e-05)
(0.0051729477 4.1706609e-05 6.9390832e-05)
(0.004965887 3.3898116e-05 5.8529098e-05)
(0.0047784814 2.7249954e-05 4.9189878e-05)
(0.0046092054 2.1693073e-05 4.1208773e-05)
(0.0044565535 1.7117437e-05 3.4426145e-05)
(0.0043190553 1.3395519e-05 2.8691658e-05)
(0.0041952917 1.0397812e-05 2.3866804e-05)
(0.0040839086 8.0023313e-06 1.9826011e-05)
(0.0039836292 6.0997698e-06 1.6456861e-05)
(0.0038932634 4.5956627e-06 1.3659716e-05)
(0.0038117126 3.4106741e-06 1.1347012e-05)
(0.0037379734 2.4799288e-06 9.4422918e-06)
(0.0036711359 1.7515105e-06 7.8790888e-06)
(0.0036103859 1.1749039e-06 6.6010325e-06)
(0.0035549935 7.2234057e-07 5.5561205e-06)
(0.0035043108 3.7342552e-07 4.7060696e-06)
(0.0034577717 1.0569686e-07 4.0163445e-06)
(0.0034148763 -9.9088273e-08 3.4574132e-06)
(0.0033751872 -2.5333542e-07 3.0054943e-06)
(0.0033383243 -3.663985e-07 2.6409744e-06)
(0.0033039576 -4.4577859e-07 2.3475729e-06)
(0.0032718009 -4.9748341e-07 2.1118274e-06)
(0.0032416065 -5.2634628e-07 1.9226421e-06)
(0.0032131599 -5.3630981e-07 1.7709158e-06)
(0.0031862758 -5.3063934e-07 1.6492025e-06)
(0.0031607936 -5.1206217e-07 1.5514408e-06)
(0.0031365743 -4.8287204e-07 1.4727107e-06)
(0.0031134976 -4.4500666e-07 1.4090331e-06)
(0.0030914586 -4.0011194e-07 1.3572061e-06)
(0.0030703663 -3.495797e-07 1.3146576e-06)
(0.0030501409 -2.9459478e-07 1.2793313e-06)
(0.0030307129 -2.3617045e-07 1.2495911e-06)
(0.0030120207 -1.75166e-07 1.22414e-06)
(0.0029940105 -1.1232258e-07 1.2019533e-06)
(0.0029766343 -4.826776e-08 1.1822239e-06)
(0.0029598495 1.644828e-08 1.1643209e-06)
(0.0029436181 8.1355828e-08 1.1477518e-06)
(0.002927906 1.4602423e-07 1.1321248e-06)
(0.0029126825 2.1005786e-07 1.1171182e-06)
(0.0028979201 2.7304973e-07 1.1024387e-06)
(0.0028835935 3.3454057e-07 1.0876609e-06)
(0.0028696773 3.9432323e-07 1.0722022e-06)
(0.0028561514 4.5704966e-07 1.0590086e-06)
(0.0028429997 5.2060126e-07 1.0472574e-06)
(0.0028302035 5.8225362e-07 1.0356079e-06)
(0.0028177449 6.4163872e-07 1.0238007e-06)
(0.0028056084 6.990203e-07 1.0118741e-06)
(0.0027937799 7.5456135e-07 9.9986762e-07)
(0.0027822461 8.0835019e-07 9.8780937e-07)
(0.0027709946 8.6046814e-07 9.7571911e-07)
(0.0027600137 9.1102623e-07 9.6360202e-07)
(0.0027492926 9.6019489e-07 9.5144621e-07)
(0.0027388207 1.0080059e-06 9.3926659e-07)
(0.0027285887 1.0528502e-06 9.2746568e-07)
(0.0027185878 1.0958661e-06 9.1582909e-07)
(0.0027088089 1.1374998e-06 9.0425308e-07)
(0.0026992438 1.1777667e-06 8.9275847e-07)
(0.0026898847 1.2166572e-06 8.813657e-07)
(0.0026807244 1.25417e-06 8.700796e-07)
(0.0026717559 1.2903146e-06 8.5890652e-07)
(0.0026629726 1.3251076e-06 8.4785242e-07)
(0.0026543682 1.358574e-06 8.3692301e-07)
(0.0026459367 1.3907403e-06 8.2612195e-07)
(0.0026376723 1.4216362e-06 8.1545367e-07)
(0.0026295698 1.4512897e-06 8.0492058e-07)
(0.0026216238 1.4797324e-06 7.9452363e-07)
(0.0026138294 1.5069915e-06 7.8426335e-07)
(0.002606182 1.5330936e-06 7.7414032e-07)
(0.0025986769 1.5580637e-06 7.6415179e-07)
(0.0025913099 1.581921e-06 7.5429479e-07)
(0.0025840769 1.6046808e-06 7.4456442e-07)
(0.0025769739 1.6263483e-06 7.3495267e-07)
(0.0025699972 1.6469193e-06 7.2544762e-07)