/*--------------------------------*- C++ -*----------------------------------*\
  =========                 |
  \\      /  F ield         | OpenFOAM: The Open Source CFD Toolbox
   \\    /   O peration     | Website:  https://openfoam.org
    \\  /    A nd           | Version:  7
     \\/     M anipulation  |
\*---------------------------------------------------------------------------*/
FoamFile
{
    version     2.0;
    format      ascii;
    class       volVectorField;
    location    "900/water";
    object      U;
}
// * * * * * * * * * * * * * * * * * * * * * * * * * * * * * * * * * * * * * //

dimensions      [0 1 -1 0 0 0 0];

internalField   nonuniform List<vector> 
54000
(
(0.0090020934 0.00020305973 0.00020444027)
(0.0083186447 0.00023622738 0.00023904411)
(0.0073695241 0.00021363852 0.00021763527)
(0.0063566114 0.00018488016 0.00018965819)
(0.0054486673 0.00015530836 0.00016048633)
(0.0046741594 0.00012529952 0.00013052937)
(0.0040193038 9.7052611e-05 0.00010203017)
(0.0034740067 7.2578999e-05 7.7073287e-05)
(0.0030302461 5.2876127e-05 5.6738328e-05)
(0.0026757323 3.8068151e-05 4.1216512e-05)
(0.0023947254 2.7637705e-05 3.003714e-05)
(0.0021713898 2.0689034e-05 2.2336508e-05)
(0.0019919695 1.6236161e-05 1.7152703e-05)
(0.0018455015 1.3416236e-05 1.3643172e-05)
(0.0017237326 1.1582489e-05 1.1179123e-05)
(0.0016206928 1.0304892e-05 9.3455816e-06)
(0.0015321593 9.3257908e-06 7.8957155e-06)
(0.0014551546 8.5052953e-06 6.6953108e-06)
(0.0013875459 7.7746345e-06 5.6760586e-06)
(0.0013277612 7.1034283e-06 4.8034867e-06)
(0.001274601 6.4798492e-06 4.0581559e-06)
(0.0012271179 5.8999448e-06 3.4261575e-06)
(0.0011845424 5.3625302e-06 2.8950703e-06)
(0.001146235 4.8670213e-06 2.4526305e-06)
(0.0011116558 4.4125992e-06 2.0869773e-06)
(0.0010803434 3.9980122e-06 1.7867454e-06)
(0.0010519002 3.6214604e-06 1.541613e-06)
(0.0010259819 3.2805941e-06 1.3421853e-06)
(0.001002289 2.9733957e-06 1.1797316e-06)
(0.00098056199 2.6979486e-06 1.0463205e-06)
(0.00096057571 2.4519203e-06 9.3658896e-07)
(0.00094213242 2.2325665e-06 8.4693355e-07)
(0.00092505791 2.0373867e-06 7.7316589e-07)
(0.00090920047 1.8640895e-06 7.1184176e-07)
(0.00089442818 1.7104625e-06 6.6046776e-07)
(0.0008806259 1.5743826e-06 6.1707358e-07)
(0.00086769294 1.4538608e-06 5.8005391e-07)
(0.00085554128 1.3470707e-06 5.4811427e-07)
(0.00084409387 1.2523501e-06 5.2023972e-07)
(0.00083328322 1.1681992e-06 4.9562777e-07)
(0.00082305015 1.0932612e-06 4.7365318e-07)
(0.00081334267 1.0262295e-06 4.5378305e-07)
(0.00080411486 9.6585816e-07 4.3554404e-07)
(0.00079532615 9.11311e-07 4.1865078e-07)
(0.0007869407 8.6191689e-07 4.0290736e-07)
(0.00077892675 8.1708227e-07 3.8816732e-07)
(0.00077125603 7.762762e-07 3.743208e-07)
(0.0007639033 7.3902565e-07 3.612764e-07)
(0.00075684597 7.0491545e-07 3.4896338e-07)
(0.00075006373 6.7357555e-07 3.3733157e-07)
(0.00074353821 6.4469313e-07 3.2633672e-07)
(0.00073725294 6.1802517e-07 3.1581875e-07)
(0.00073119313 5.9334674e-07 3.0574318e-07)
(0.00072534528 5.7041898e-07 2.962108e-07)
(0.00071969687 5.490243e-07 2.8716646e-07)
(0.00071423652 5.2901438e-07 2.7854394e-07)
(0.00070895385 5.1027395e-07 2.7031173e-07)
(0.00070383928 4.926872e-07 2.6244817e-07)
(0.00069888397 4.7614413e-07 2.5493296e-07)
(0.00069407976 4.6054994e-07 2.4774273e-07)
(0.00068941911 4.4581994e-07 2.4086386e-07)
(0.00068489502 4.3188472e-07 2.3427663e-07)
(0.00068050097 4.1868018e-07 2.27964e-07)
(0.00067623091 4.0614637e-07 2.2191179e-07)
(0.00067207915 3.9423541e-07 2.1610618e-07)
(0.00066804042 3.8289688e-07 2.1053159e-07)
(0.00066410976 3.7209474e-07 2.0517817e-07)
(0.00066028251 3.6179405e-07 2.0003229e-07)
(0.00065655429 3.5196293e-07 1.9508314e-07)
(0.00065292099 3.4257004e-07 1.9031832e-07)
(0.00064937872 3.3358549e-07 1.8572885e-07)
(0.00064592383 3.2498834e-07 1.8130602e-07)
(0.00064255288 3.1675235e-07 1.7704042e-07)
(0.00063926261 3.0885643e-07 1.7292543e-07)
(0.00063604992 3.0128207e-07 1.6895064e-07)
(0.00063291191 2.9401291e-07 1.6511053e-07)
(0.00062984582 2.8703158e-07 1.6139707e-07)
(0.00062684903 2.8032118e-07 1.5780247e-07)
(0.00062391907 2.7387064e-07 1.5432042e-07)
(0.00062105358 2.6766581e-07 1.5094222e-07)
(0.00061825035 2.6169403e-07 1.4766049e-07)
(0.00061550726 2.5594612e-07 1.4446894e-07)
(0.00061282235 2.504072e-07 1.4135967e-07)
(0.00061019373 2.4506883e-07 1.3832381e-07)
(0.00060761964 2.3991943e-07 1.3535552e-07)
(0.00060509845 2.3494595e-07 1.3244865e-07)
(0.00060262862 2.3013543e-07 1.2959783e-07)
(0.00060020873 2.2547055e-07 1.268051e-07)
(0.00059783744 2.2093116e-07 1.2407642e-07)
(0.00059551347 2.1649871e-07 1.214332e-07)
(0.00059323554 2.1214873e-07 1.1892906e-07)
(0.00059100214 2.0787192e-07 1.1666204e-07)
(0.00058881114 2.0369087e-07 1.148303e-07)
(0.00058665898 1.997317e-07 1.1382047e-07)
(0.00058453869 1.9638479e-07 1.1440994e-07)
(0.00058243501 1.9487317e-07 1.1837344e-07)
(0.00058031396 1.9977435e-07 1.3094454e-07)
(0.0005781161 2.2258459e-07 1.6397674e-07)
(0.00057566369 1.9706914e-07 1.5080707e-07)
(0.000569062 7.8896408e-07 7.5322606e-07)
(0.0095316863 0.0003313754 0.00022336697)
(0.0092716504 0.00041105942 0.00027052342)
(0.0087756651 0.00040317187 0.00026060062)
(0.0081527518 0.00038218754 0.00024252081)
(0.0075302151 0.00035309574 0.00022101124)
(0.0069425889 0.00031541062 0.00019648834)
(0.006391209 0.00027309198 0.00017102969)
(0.0058791845 0.00023030694 0.00014652546)
(0.0054120202 0.00019001855 0.00012410997)
(0.0049926512 0.00015423459 0.00010436627)
(0.004620592 0.00012408347 8.7479017e-05)
(0.0042931332 9.9809403e-05 7.3327496e-05)
(0.0040063965 8.0956424e-05 6.1601504e-05)
(0.0037559538 6.667221e-05 5.1918794e-05)
(0.0035372541 5.5985799e-05 4.3907445e-05)
(0.003345947 4.7992056e-05 3.7246646e-05)
(0.0031780884 4.194171e-05 3.1677529e-05)
(0.0030302311 3.7262445e-05 2.6997921e-05)
(0.0028994324 3.3540997e-05 2.3051138e-05)
(0.0027832152 3.0490245e-05 1.9714593e-05)
(0.0026795075 2.7915735e-05 1.6890544e-05)
(0.0025865783 2.5687841e-05 1.4499383e-05)
(0.002502978 2.3720893e-05 1.2475016e-05)
(0.0024274871 2.1958431e-05 1.0761726e-05)
(0.0023590736 2.0362993e-05 9.3122336e-06)
(0.0022968589 1.8909453e-05 8.086129e-06)
(0.0022400906 1.7580768e-05 7.0489629e-06)
(0.0021881216 1.6364898e-05 6.1714983e-06)
(0.0021403932 1.5251964e-05 5.4283148e-06)
(0.0020964214 1.4233849e-05 4.7973507e-06)
(0.0020557868 1.3303039e-05 4.2604811e-06)
(0.0020181236 1.2451985e-05 3.8027036e-06)
(0.0019831119 1.1673908e-05 3.4109608e-06)
(0.0019504718 1.0962756e-05 3.0744207e-06)
(0.0019199589 1.0312853e-05 2.7842599e-06)
(0.0018913593 9.7188336e-06 2.5331801e-06)
(0.0018644851 9.1756437e-06 2.3150744e-06)
(0.0018391716 8.6785722e-06 2.124831e-06)
(0.0018152735 8.2232432e-06 1.9581837e-06)
(0.0017926629 7.8056217e-06 1.8115665e-06)
(0.0017712268 7.4219973e-06 1.6820114e-06)
(0.001750865 7.0689365e-06 1.5670705e-06)
(0.0017314886 6.7432679e-06 1.4647434e-06)
(0.0017130186 6.442272e-06 1.3732761e-06)
(0.0016953848 6.1635564e-06 1.2911591e-06)
(0.0016785241 5.9049771e-06 1.2171194e-06)
(0.00166238 5.664609e-06 1.1500839e-06)
(0.0016469019 5.4407243e-06 1.0891483e-06)
(0.001632044 5.2317781e-06 1.0335528e-06)
(0.0016177648 5.0363842e-06 9.8265491e-07)
(0.0016040271 4.8533216e-06 9.3589505e-07)
(0.0015907965 4.6815622e-06 8.927381e-07)
(0.0015780424 4.5201554e-06 8.5278673e-07)
(0.0015657364 4.3681536e-06 8.1576993e-07)
(0.0015538526 4.2246825e-06 7.8138543e-07)
(0.0015423672 4.0890604e-06 7.4934551e-07)
(0.0015312583 3.9607297e-06 7.1941207e-07)
(0.0015205058 3.8391523e-06 6.9138731e-07)
(0.0015100909 3.7238124e-06 6.6509335e-07)
(0.0014999963 3.6142433e-06 6.4037912e-07)
(0.001490206 3.5100296e-06 6.1710856e-07)
(0.0014807053 3.4107978e-06 5.9516053e-07)
(0.00147148 3.3162118e-06 5.7442801e-07)
(0.0014625175 3.2259589e-06 5.5481509e-07)
(0.0014538055 3.1397547e-06 5.3623558e-07)
(0.0014453328 3.0573333e-06 5.18613e-07)
(0.0014370889 2.97847e-06 5.0187812e-07)
(0.0014290637 2.9029575e-06 4.8596808e-07)
(0.001421248 2.8306026e-06 4.7082346e-07)
(0.001413633 2.7612191e-06 4.5639255e-07)
(0.0014062103 2.6946328e-06 4.4262815e-07)
(0.0013989723 2.6306912e-06 4.2948653e-07)
(0.0013919116 2.5692461e-06 4.1693015e-07)
(0.0013850211 2.5101628e-06 4.0492035e-07)
(0.0013782945 2.4533182e-06 3.9342481e-07)
(0.0013717253 2.3985942e-06 3.8241059e-07)
(0.0013653078 2.3458851e-06 3.7185151e-07)
(0.0013590364 2.2950854e-06 3.6171681e-07)
(0.0013529058 2.2461051e-06 3.519842e-07)
(0.001346911 2.1988515e-06 3.4262585e-07)
(0.0013410472 2.1532411e-06 3.3362082e-07)
(0.0013353099 2.1091963e-06 3.2494465e-07)
(0.001329695 2.0666362e-06 3.1657857e-07)
(0.0013241983 2.0254869e-06 3.0850008e-07)
(0.001318816 1.9856727e-06 3.0069102e-07)
(0.0013135446 1.947113e-06 2.9313043e-07)
(0.0013083808 1.9097264e-06 2.8580503e-07)
(0.0013033213 1.8734242e-06 2.7870129e-07)
(0.0012983632 1.8381144e-06 2.7181613e-07)
(0.0012935038 1.8037148e-06 2.651533e-07)
(0.0012887402 1.7701697e-06 2.5874205e-07)
(0.0012840698 1.7375331e-06 2.5264992e-07)
(0.0012794889 1.7061213e-06 2.4701377e-07)
(0.0012749925 1.6769097e-06 2.4211367e-07)
(0.001270572 1.6524682e-06 2.3851805e-07)
(0.0012662098 1.6393334e-06 2.3765975e-07)
(0.0012618709 1.6545765e-06 2.4458286e-07)
(0.0012574959 1.7463708e-06 2.7712527e-07)
(0.0012529717 2.037671e-06 2.6526433e-07)
(0.0012433358 2.9514814e-06 1.3525325e-06)
(0.0095221617 0.00021179965 0.00022180582)
(0.009269783 0.00029872516 0.00026628967)
(0.0088657772 0.00031669844 0.00025526743)
(0.0083755729 0.000317438 0.00023864265)
(0.0078888426 0.00030841043 0.00021987851)
(0.0074276349 0.00028848207 0.00019850458)
(0.006988258 0.00026048391 0.00017617916)
(0.0065698164 0.00022855168 0.00015444521)
(0.0061756011 0.00019596771 0.00013413534)
(0.0058087146 0.00016504408 0.00011567593)
(0.0054706295 0.00013728621 9.9270839e-05)
(0.0051615551 0.00011345265 8.4947831e-05)
(0.0048808654 9.3684508e-05 7.2600738e-05)
(0.0046272998 7.7712987e-05 6.2044901e-05)
(0.0043991196 6.5057025e-05 5.3064543e-05)
(0.0041942886 5.5163887e-05 4.544363e-05)
(0.0040106431 4.7493346e-05 3.8982754e-05)
(0.0038460219 4.1561376e-05 3.3506381e-05)
(0.0036983537 3.6958193e-05 2.8864074e-05)
(0.0035657105 3.3351175e-05 2.4928487e-05)
(0.0034463343 3.0479502e-05 2.1592135e-05)
(0.003338646 2.8144769e-05 1.8764099e-05)
(0.003241243 2.6200155e-05 1.6367138e-05)
(0.0031528887 2.4539752e-05 1.4335369e-05)
(0.0030724986 2.3088867e-05 1.261249e-05)
(0.0029991252 2.1796113e-05 1.1150134e-05)
(0.0029319421 2.0626904e-05 9.9064826e-06)
(0.0028702292 1.9558162e-05 8.8458161e-06)
(0.0028133589 1.8574038e-05 7.9385387e-06)
(0.0027607855 1.7663623e-05 7.159824e-06)
(0.0027120345 1.6818833e-05 6.4890355e-06)
(0.0026666927 1.6033066e-05 5.9090214e-06)
(0.0026243991 1.5301095e-05 5.4052727e-06)
(0.0025848382 1.4618819e-05 4.9656525e-06)
(0.0025477347 1.3982712e-05 4.5801144e-06)
(0.0025128472 1.3389542e-05 4.2403266e-06)
(0.002479964 1.283628e-05 3.9393557e-06)
(0.0024488994 1.2320059e-05 3.6714263e-06)
(0.0024194896 1.1838145e-05 3.4317262e-06)
(0.00239159 1.138794e-05 3.2162505e-06)
(0.0023650729 1.0966985e-05 3.0216612e-06)
(0.0023398248 1.0572999e-05 2.8451735e-06)
(0.0023157449 1.0203875e-05 2.6844746e-06)
(0.0022927433 9.8575798e-06 2.5375949e-06)
(0.0022707398 9.5322149e-06 2.4028641e-06)
(0.002249662 9.2260273e-06 2.2788672e-06)
(0.0022294453 8.9374182e-06 2.1644006e-06)
(0.0022100312 8.6649278e-06 2.0584392e-06)
(0.0021913666 8.4072371e-06 1.9601008e-06)
(0.0021734038 8.1631541e-06 1.8686316e-06)
(0.0021560989 7.9316213e-06 1.7833678e-06)
(0.0021394122 7.7117238e-06 1.7037079e-06)
(0.0021233074 7.5026011e-06 1.6291514e-06)
(0.0021077512 7.3033792e-06 1.5592838e-06)
(0.0020927129 7.1131881e-06 1.4937199e-06)
(0.0020781645 6.9314162e-06 1.4321045e-06)
(0.0020640799 6.757606e-06 1.3741144e-06)
(0.0020504351 6.5912615e-06 1.3194625e-06)
(0.0020372075 6.4318801e-06 1.2678952e-06)
(0.0020243766 6.2790066e-06 1.2191868e-06)
(0.0020119231 6.1322427e-06 1.1731313e-06)
(0.001999829 5.9912207e-06 1.1295436e-06)
(0.0019880776 5.8556094e-06 1.0882505e-06)
(0.0019766531 5.7251039e-06 1.0490956e-06)
(0.001965541 5.5994067e-06 1.0119376e-06)
(0.0019547276 5.478243e-06 9.766461e-07)
(0.0019441999 5.3613895e-06 9.4310008e-07)
(0.0019339458 5.2486476e-06 9.1118919e-07)
(0.0019239539 5.1398177e-06 8.8080659e-07)
(0.0019142135 5.0347025e-06 8.5185998e-07)
(0.0019047144 4.9331186e-06 8.2425858e-07)
(0.001895447 4.8348998e-06 7.9792427e-07)
(0.0018864023 4.7398905e-06 7.7278026e-07)
(0.0018775718 4.6479433e-06 7.487571e-07)
(0.0018689473 4.5589232e-06 7.2578762e-07)
(0.0018605211 4.4726991e-06 7.0381412e-07)
(0.0018522861 4.3891524e-06 6.8277727e-07)
(0.0018442353 4.3081686e-06 6.6262586e-07)
(0.0018363621 4.2296402e-06 6.4330787e-07)
(0.0018286604 4.1534592e-06 6.2477622e-07)
(0.0018211241 4.0795303e-06 6.0698786e-07)
(0.0018137478 4.007753e-06 5.8990081e-07)
(0.0018065261 3.9380349e-06 5.7347313e-07)
(0.001799454 3.870278e-06 5.5766688e-07)
(0.0017925266 3.8043801e-06 5.4244727e-07)
(0.0017857395 3.7402354e-06 5.2777837e-07)
(0.0017790885 3.6777262e-06 5.1362914e-07)
(0.0017725695 3.6167257e-06 4.999697e-07)
(0.0017661787 3.5571066e-06 4.8677468e-07)
(0.0017599128 3.4987607e-06 4.7402524e-07)
(0.0017537682 3.4416546e-06 4.617092e-07)
(0.0017477416 3.3859642e-06 4.4983566e-07)
(0.0017418294 3.3323824e-06 4.3844238e-07)
(0.0017360272 3.2827914e-06 4.2764663e-07)
(0.001730328 3.2417784e-06 4.1776801e-07)
(0.0017247202 3.2200416e-06 4.0999047e-07)
(0.001719183 3.2421563e-06 4.0984971e-07)
(0.001713691 3.3643444e-06 4.41144e-07)
(0.0017081999 3.7072201e-06 4.7353491e-07)
(0.0016974804 4.4611194e-06 1.8634983e-06)
(0.0095012861 0.00013951169 0.00022248511)
(0.0092133349 0.00022408324 0.00026709763)
(0.0088018509 0.0002570094 0.00025529581)
(0.0083306071 0.00026690691 0.0002382081)
(0.0078754299 0.00026502159 0.00021939837)
(0.0074527063 0.00025295651 0.00019823245)
(0.0070564396 0.00023295893 0.00017634609)
(0.0066827538 0.00020836345 0.0001552305)
(0.006331873 0.00018203354 0.00013558338)
(0.0060047052 0.00015603739 0.00011769036)
(0.0057015056 0.00013180401 0.00010166909)
(0.0054220192 0.00011020725 8.7524313e-05)
(0.0051656909 9.16319e-05 7.5171985e-05)
(0.0049316845 7.6091187e-05 6.4472618e-05)
(0.0047188814 6.3363143e-05 5.5261149e-05)
(0.0045259349 5.310494e-05 4.7366821e-05)
(0.0043513547 4.4932757e-05 4.06249e-05)
(0.0041935865 3.847136e-05 3.4883032e-05)
(0.0040510752 3.3381245e-05 3.0003994e-05)
(0.0039223115 2.9370509e-05 2.5866183e-05)
(0.0038058643 2.6197262e-05 2.2362868e-05)
(0.0037004012 2.3666732e-05 1.9400963e-05)
(0.0036047 2.1625759e-05 1.6899611e-05)
(0.0035176529 1.9956327e-05 1.4788824e-05)
(0.0034382652 1.8569048e-05 1.3008105e-05)
(0.0033656513 1.7397363e-05 1.1504744e-05)
(0.0032990266 1.6392004e-05 1.0233524e-05)
(0.0032376995 1.5516242e-05 9.1565346e-06)
(0.0031810636 1.4743888e-05 8.2421114e-06)
(0.0031285885 1.4056153e-05 7.4635755e-06)
(0.0030798115 1.3438895e-05 6.7985202e-06)
(0.0030343294 1.2881151e-05 6.2282227e-06)
(0.0029917905 1.2374496e-05 5.736983e-06)
(0.0029518882 1.191242e-05 5.3116668e-06)
(0.0029143553 1.1489691e-05 4.9413543e-06)
(0.0028789586 1.1101928e-05 4.617001e-06)
(0.0028454946 1.0745379e-05 4.331122e-06)
(0.0028137847 1.0416775e-05 4.0775287e-06)
(0.0027836727 1.0113219e-05 3.8511077e-06)
(0.0027550209 9.8321215e-06 3.6476448e-06)
(0.0027277081 9.5711602e-06 3.4636638e-06)
(0.002701627 9.3282505e-06 3.2963007e-06)
(0.0026766823 9.1015164e-06 3.1431906e-06)
(0.0026527895 8.8892434e-06 3.0023813e-06)
(0.0026298729 8.689892e-06 2.8722551e-06)
(0.0026078647 8.5020873e-06 2.7514712e-06)
(0.002586704 8.3246159e-06 2.6389103e-06)
(0.0025663358 8.1563954e-06 2.5336424e-06)
(0.0025467102 7.9964764e-06 2.4348845e-06)
(0.002527782 7.8440274e-06 2.3419785e-06)
(0.0025095101 7.6983378e-06 2.2543616e-06)
(0.0024918566 7.5588105e-06 2.1715445e-06)
(0.0024747871 7.4248986e-06 2.0931121e-06)
(0.0024582699 7.2960202e-06 2.0187197e-06)
(0.0024422756 7.1714387e-06 1.9480683e-06)
(0.0024267775 7.0509286e-06 1.8808986e-06)
(0.0024117506 6.9343766e-06 1.8169524e-06)
(0.0023971715 6.8214898e-06 1.7560028e-06)
(0.0023830185 6.7119566e-06 1.6978522e-06)
(0.0023692714 6.6055387e-06 1.6423283e-06)
(0.0023559116 6.5020456e-06 1.5892717e-06)
(0.0023429214 6.4013103e-06 1.538538e-06)
(0.0023302844 6.3031795e-06 1.4899943e-06)
(0.0023179851 6.207524e-06 1.4435162e-06)
(0.0023060089 6.1142023e-06 1.398994e-06)
(0.0022943424 6.0230686e-06 1.3563257e-06)
(0.0022829727 5.9340582e-06 1.3154151e-06)
(0.0022718877 5.847129e-06 1.2761691e-06)
(0.002261076 5.7622036e-06 1.2385017e-06)
(0.0022505267 5.6791985e-06 1.2023309e-06)
(0.0022402296 5.5980412e-06 1.1675829e-06)
(0.0022301752 5.5186713e-06 1.1341883e-06)
(0.0022203542 5.4410312e-06 1.1020813e-06)
(0.002210758 5.3650627e-06 1.0711988e-06)
(0.0022013784 5.290718e-06 1.0414839e-06)
(0.0021922076 5.2179487e-06 1.0128822e-06)
(0.0021832381 5.1467085e-06 9.8533849e-07)
(0.0021744628 5.0769569e-06 9.5880422e-07)
(0.0021658752 5.0086512e-06 9.3323128e-07)
(0.0021574688 4.9417454e-06 9.0857452e-07)
(0.0021492375 4.8762002e-06 8.8479048e-07)
(0.0021411756 4.8119659e-06 8.6183913e-07)
(0.0021332776 4.7489978e-06 8.3967959e-07)
(0.0021255383 4.6872394e-06 8.1827022e-07)
(0.0021179527 4.6266208e-06 7.9757705e-07)
(0.0021105161 4.5670664e-06 7.7756141e-07)
(0.0021032242 4.5084818e-06 7.5818463e-07)
(0.0020960727 4.450754e-06 7.3941056e-07)
(0.0020890577 4.3937739e-06 7.2120266e-07)
(0.0020821756 4.3374533e-06 7.0352055e-07)
(0.002075423 4.281811e-06 6.8632151e-07)
(0.0020687967 4.2271334e-06 6.6956118e-07)
(0.0020622937 4.1743542e-06 6.532029e-07)
(0.002055911 4.1258144e-06 6.3726209e-07)
(0.0020496453 4.0868306e-06 6.2198441e-07)
(0.0020434926 4.0687784e-06 6.0874703e-07)
(0.0020374483 4.0948777e-06 6.0452148e-07)
(0.0020315149 4.209427e-06 6.3987829e-07)
(0.0020256647 4.4797496e-06 7.1688495e-07)
(0.0020144539 4.9057775e-06 2.2695259e-06)
(0.0094902877 9.6726608e-05 0.00022289229)
(0.00917661 0.00016632333 0.00026788105)
(0.0087449456 0.00019969046 0.00025550648)
(0.0082664657 0.00021101604 0.00023762681)
(0.00781215 0.0002109939 0.0002181603)
(0.0073950862 0.0002028236 0.00019646328)
(0.0070087986 0.00018827265 0.00017418493)
(0.006648835 0.00016968865 0.0001528463)
(0.0063142174 0.00014929331 0.00013312182)
(0.0060045996 0.00012875288 0.0001152379)
(0.0057192201 0.00010923292 9.9256792e-05)
(0.0054570682 9.1490071e-05 8.514891e-05)
(0.0052170782 7.5923401e-05 7.2816212e-05)
(0.0049981259 6.2643331e-05 6.2119133e-05)
(0.0047989841 5.1561152e-05 5.2900047e-05)
(0.0046183234 4.2472278e-05 4.4997975e-05)
(0.0044547458 3.5118724e-05 3.8256897e-05)
(0.0043068267 2.9230544e-05 3.2530442e-05)
(0.0041731526 2.4550834e-05 2.7684339e-05)
(0.0040523509 2.084911e-05 2.3597362e-05)
(0.0039431142 1.7926912e-05 2.0161345e-05)
(0.0038442168 1.56186e-05 1.7280682e-05)
(0.0037545253 1.3789365e-05 1.4871531e-05)
(0.0036730042 1.2331759e-05 1.2860862e-05)
(0.0035987172 1.1161539e-05 1.1185211e-05)
(0.0035308246 1.0213367e-05 9.7889742e-06)
(0.0034685786 9.4380845e-06 8.6250717e-06)
(0.0034113173 8.7971306e-06 7.6543152e-06)
(0.0033584589 8.2627221e-06 6.8439391e-06)
(0.0033094933 7.8140836e-06 6.166455e-06)
(0.0032639753 7.4348249e-06 5.5988465e-06)
(0.0032215172 7.112131e-06 5.1219277e-06)
(0.0031817817 6.8360969e-06 4.7197276e-06)
(0.0031444758 6.5990212e-06 4.3789734e-06)
(0.0031093448 6.39478e-06 4.0886814e-06)
(0.0030761678 6.2184057e-06 3.8397977e-06)
(0.0030447526 6.0657972e-06 3.6248786e-06)
(0.003014932 5.9335279e-06 3.4378173e-06)
(0.0029865602 5.8186977e-06 3.2736173e-06)
(0.0029595097 5.7188196e-06 3.1282041e-06)
(0.002933669 5.6317508e-06 2.9982611e-06)
(0.00290894 5.5556275e-06 2.8810965e-06)
(0.0028852364 5.4888245e-06 2.774534e-06)
(0.0028624815 5.4299136e-06 2.6768095e-06)
(0.0028406075 5.3776433e-06 2.5865038e-06)
(0.0028195538 5.330923e-06 2.5024723e-06)
(0.0027992664 5.2888085e-06 2.423789e-06)
(0.0027796963 5.2504826e-06 2.3497105e-06)
(0.0027607998 5.2152425e-06 2.2796375e-06)
(0.002742537 5.1824988e-06 2.2130841e-06)
(0.0027248717 5.151767e-06 2.1496541e-06)
(0.0027077708 5.1226692e-06 2.0890231e-06)
(0.0026912041 5.0948955e-06 2.0309207e-06)
(0.0026751435 5.0680851e-06 1.9751371e-06)
(0.0026595636 5.041065e-06 1.9215393e-06)
(0.0026444411 5.0142597e-06 1.8699674e-06)
(0.002629754 4.9880179e-06 1.8202523e-06)
(0.0026154815 4.9620718e-06 1.7722792e-06)
(0.0026016045 4.9361409e-06 1.7259602e-06)
(0.0025881054 4.9100841e-06 1.6812144e-06)
(0.0025749674 4.8838316e-06 1.6379655e-06)
(0.002562175 4.8573404e-06 1.5961458e-06)
(0.0025497136 4.8305806e-06 1.5556924e-06)
(0.0025375693 4.8035394e-06 1.5165491e-06)
(0.0025257292 4.7761753e-06 1.4786618e-06)
(0.002514181 4.7483842e-06 1.4419854e-06)
(0.0025029134 4.720275e-06 1.4064831e-06)
(0.0024919153 4.6919139e-06 1.3721017e-06)
(0.0024811765 4.6632891e-06 1.3387969e-06)
(0.002470687 4.6344017e-06 1.3065287e-06)
(0.0024604377 4.6052669e-06 1.2752601e-06)
(0.0024504197 4.5759077e-06 1.2449543e-06)
(0.0024406247 4.5463455e-06 1.2155763e-06)
(0.0024310448 4.5166019e-06 1.1870937e-06)
(0.0024216723 4.4866959e-06 1.1594731e-06)
(0.0024125001 4.4566517e-06 1.1326834e-06)
(0.0024035213 4.4264885e-06 1.1066975e-06)
(0.0023947295 4.3962284e-06 1.0814833e-06)
(0.0023861184 4.3658901e-06 1.0570129e-06)
(0.0023776821 4.3354874e-06 1.0332593e-06)
(0.0023694149 4.3050326e-06 1.0101949e-06)
(0.0023613115 4.2745336e-06 9.8779456e-07)
(0.0023533667 4.2439924e-06 9.6603029e-07)
(0.0023455757 4.2133974e-06 9.4487444e-07)
(0.0023379338 4.182721e-06 9.2429853e-07)
(0.0023304365 4.1519263e-06 9.0427615e-07)
(0.0023230798 4.1209541e-06 8.8477203e-07)
(0.0023158597 4.0897244e-06 8.6575173e-07)
(0.0023087726 4.0581556e-06 8.4717254e-07)
(0.002301815 4.0261905e-06 8.2898045e-07)
(0.0022949838 3.9938763e-06 8.111076e-07)
(0.0022882766 3.9615311e-06 7.9346262e-07)
(0.002281691 3.930078e-06 7.7594347e-07)
(0.0022752261 3.9016919e-06 7.5847784e-07)
(0.002268882 3.8809408e-06 7.4124657e-07)
(0.0022626608 3.8766475e-06 7.2572719e-07)
(0.0022565685 3.9043036e-06 7.1958041e-07)
(0.0022506189 3.9866547e-06 7.557996e-07)
(0.0022447715 4.1390995e-06 8.4931781e-07)
(0.002233564 4.283226e-06 2.4122107e-06)
(0.0094843561 6.6886585e-05 0.00022303624)
(0.0091549219 0.00011904886 0.00026838771)
(0.0087072816 0.00014772496 0.00025588053)
(0.0082191888 0.00015892952 0.00023765677)
(0.0077602858 0.00016026049 0.00021787142)
(0.0073412804 0.00015505102 0.00019586613)
(0.0069552494 0.00014481701 0.00017327438)
(0.0065978366 0.00013121474 0.00015165024)
(0.0062677954 0.00011592881 0.00013169211)
(0.0059642872 0.00010028521 0.0001136244)
(0.0056860598 8.5214432e-05 9.7497522e-05)
(0.0054316726 7.1330407e-05 8.3272195e-05)
(0.0051997008 5.8984298e-05 7.0844884e-05)
(0.0049887459 4.8311755e-05 6.0073373e-05)
(0.0047973943 3.9291583e-05 5.0798891e-05)
(0.0046242055 3.1804354e-05 4.2859902e-05)
(0.0044677269 2.5679084e-05 3.6099807e-05)
(0.0043265179 2.0725784e-05 3.0371291e-05)
(0.0041991724 1.6756344e-05 2.5538702e-05)
(0.004084339 1.3596838e-05 2.1479083e-05)
(0.0039807371 1.1093753e-05 1.8082324e-05)
(0.0038871692 9.1161645e-06 1.525079e-05)
(0.0038025288 7.5553799e-06 1.2898647e-05)
(0.003725804 6.3231349e-06 1.0950987e-05)
(0.0036560786 5.3488192e-06 9.3426792e-06)
(0.0035925304 4.5751823e-06 8.0166132e-06)
(0.0035344253 3.9621016e-06 6.9239479e-06)
(0.0034811131 3.4726296e-06 6.0250725e-06)
(0.0034320221 3.0815209e-06 5.2862632e-06)
(0.0033866501 2.7702786e-06 4.6792104e-06)
(0.0033445586 2.5236758e-06 4.1805223e-06)
(0.0033053662 2.3295876e-06 3.7707532e-06)
(0.0032687419 2.1784982e-06 3.4337448e-06)
(0.0032343982 2.0629067e-06 3.1561104e-06)
(0.0032020863 1.9768107e-06 2.9267973e-06)
(0.0031715907 1.9153172e-06 2.7367032e-06)
(0.0031427248 1.8743807e-06 2.5783562e-06)
(0.0031153267 1.8506053e-06 2.4456293e-06)
(0.0030892563 1.8411249e-06 2.3335216e-06)
(0.0030643915 1.8434994e-06 2.2379673e-06)
(0.003040626 1.8556451e-06 2.1556637e-06)
(0.0030178671 1.8757818e-06 2.0839519e-06)
(0.0029960335 1.9023813e-06 2.0206936e-06)
(0.0029750538 1.9341336e-06 1.9641812e-06)
(0.0029548648 1.9699145e-06 1.9130519e-06)
(0.0029354109 2.0087624e-06 1.8662271e-06)
(0.0029166424 2.0498589e-06 1.8228518e-06)
(0.0028985148 2.0925105e-06 1.7822571e-06)
(0.0028809885 2.1361379e-06 1.743915e-06)
(0.0028640277 2.1802717e-06 1.7074102e-06)
(0.0028475999 2.2245509e-06 1.672414e-06)
(0.0028316758 2.268761e-06 1.6386558e-06)
(0.0028162284 2.3128933e-06 1.6058721e-06)
(0.0028012324 2.3570787e-06 1.5738232e-06)
(0.0027866658 2.3978709e-06 1.5431888e-06)
(0.0027725089 2.4362343e-06 1.5136884e-06)
(0.0027587418 2.4734393e-06 1.4848892e-06)
(0.002745346 2.5095329e-06 1.4567018e-06)
(0.002732305 2.5443495e-06 1.4291163e-06)
(0.0027196032 2.5777706e-06 1.4021111e-06)
(0.0027072261 2.6097227e-06 1.3756638e-06)
(0.0026951602 2.6401645e-06 1.349755e-06)
(0.0026833928 2.6690868e-06 1.324375e-06)
(0.0026719116 2.6965044e-06 1.2995087e-06)
(0.0026607054 2.7223727e-06 1.2751516e-06)
(0.0026497635 2.7463542e-06 1.2513125e-06)
(0.002639076 2.7689074e-06 1.2279778e-06)
(0.0026286333 2.7901458e-06 1.2051282e-06)
(0.0026184262 2.809992e-06 1.1827612e-06)
(0.0026084461 2.8284315e-06 1.1608696e-06)
(0.0025986849 2.8454931e-06 1.1394488e-06)
(0.0025891348 2.8612173e-06 1.1184902e-06)
(0.0025797885 2.8756472e-06 1.0979866e-06)
(0.002570639 2.8888307e-06 1.0779295e-06)
(0.0025616795 2.9008049e-06 1.0583091e-06)
(0.0025529038 2.9116197e-06 1.0391184e-06)
(0.0025443058 2.921314e-06 1.0203483e-06)
(0.0025358796 2.9299302e-06 1.0019902e-06)
(0.0025276198 2.9375071e-06 9.8403254e-07)
(0.002519521 2.9440795e-06 9.6646541e-07)
(0.0025115783 2.9496793e-06 9.492793e-07)
(0.0025037869 2.9543361e-06 9.3246097e-07)
(0.0024961421 2.9580675e-06 9.1599947e-07)
(0.0024886396 2.9608815e-06 8.9987945e-07)
(0.0024812752 2.9627731e-06 8.8408365e-07)
(0.002474045 2.9637222e-06 8.6859406e-07)
(0.0024669452 2.9636875e-06 8.5338154e-07)
(0.0024599723 2.9626127e-06 8.3841379e-07)
(0.0024531231 2.9604305e-06 8.236436e-07)
(0.0024463945 2.9570967e-06 8.090031e-07)
(0.0024397839 2.9526518e-06 7.943988e-07)
(0.0024332894 2.9473522e-06 7.796931e-07)
(0.0024269099 2.9419133e-06 7.6470824e-07)
(0.0024206457 2.9379224e-06 7.4926012e-07)
(0.0024144993 2.9384189e-06 7.3336493e-07)
(0.0024084767 2.9484941e-06 7.1826442e-07)
(0.0024025877 2.9751247e-06 7.1113377e-07)
(0.002396846 3.0234602e-06 7.4331422e-07)
(0.0023911945 3.0808282e-06 8.3046669e-07)
(0.0023803644 3.0574248e-06 2.2999442e-06)
(0.0094810492 4.4090134e-05 0.00022308885)
(0.0091422796 7.9975481e-05 0.00026874495)
(0.0086839084 0.00010160921 0.00025628771)
(0.0081880903 0.00011101591 0.00023793456)
(0.0077246858 0.00011275117 0.00021798622)
(0.0073029895 0.00010953687 0.00019578738)
(0.0069155191 0.00010266029 0.00017296032)
(0.0065579578 9.3267236e-05 0.0001510852)
(0.006229001 8.2539593e-05 0.00013089045)
(0.005927585 7.1446832e-05 0.00011261412)
(0.0056522063 6.0673359e-05 9.6309239e-05)
(0.0054012005 5.0670807e-05 8.1936268e-05)
(0.0051729477 4.1706609e-05 6.9390832e-05)
(0.004965887 3.3898117e-05 5.8529097e-05)
(0.0047784814 2.7249955e-05 4.9189879e-05)
(0.0046092054 2.1693074e-05 4.1208773e-05)
(0.0044565535 1.7117437e-05 3.4426143e-05)
(0.0043190553 1.3395519e-05 2.8691658e-05)
(0.0041952917 1.0397812e-05 2.3866804e-05)
(0.0040839086 8.0023317e-06 1.9826011e-05)
(0.0039836292 6.0997707e-06 1.6456861e-05)
(0.0038932634 4.5956624e-06 1.3659716e-05)
(0.0038117126 3.4106728e-06 1.1347013e-05)
(0.0037379734 2.4799296e-06 9.4422926e-06)
(0.0036711359 1.7515122e-06 7.8790895e-06)
(0.0036103859 1.1749051e-06 6.6010327e-06)
(0.0035549935 7.2234108e-07 5.5561196e-06)
(0.0035043108 3.7342567e-07 4.7060698e-06)
(0.0034577717 1.0569677e-07 4.0163444e-06)
(0.0034148763 -9.9087556e-08 3.4574144e-06)
(0.0033751872 -2.5333417e-07 3.0054957e-06)
(0.0033383243 -3.6639883e-07 2.6409743e-06)
(0.0033039576 -4.4577795e-07 2.3475738e-06)
(0.0032718009 -4.9748224e-07 2.1118275e-06)
(0.0032416065 -5.2634461e-07 1.9226421e-06)
(0.0032131599 -5.3631e-07 1.7709155e-06)
(0.0031862758 -5.3064001e-07 1.6492022e-06)
(0.0031607936 -5.1206249e-07 1.5514406e-06)
(0.0031365743 -4.8287231e-07 1.4727105e-06)
(0.0031134976 -4.450064e-07 1.4090333e-06)
(0.0030914586 -4.0011161e-07 1.3572063e-06)
(0.0030703663 -3.4957864e-07 1.3146563e-06)
(0.0030501409 -2.945951e-07 1.2793302e-06)
(0.0030307129 -2.3616962e-07 1.2495917e-06)
(0.0030120207 -1.7516557e-07 1.2241407e-06)
(0.0029940105 -1.1232075e-07 1.2019527e-06)
(0.0029766343 -4.8266561e-08 1.1822236e-06)
(0.0029598495 1.6449521e-08 1.1643212e-06)
(0.0029436181 8.1354567e-08 1.1477526e-06)
(0.002927906 1.46025e-07 1.1321246e-06)
(0.0029126825 2.1005859e-07 1.1171191e-06)
(0.0028979201 2.7304953e-07 1.1024395e-06)
(0.0028835935 3.3454174e-07 1.0876606e-06)
(0.0028696773 3.9432301e-07 1.0722024e-06)
(0.0028561514 4.5704933e-07 1.0590087e-06)
(0.0028429997 5.2059979e-07 1.0472581e-06)
(0.0028302035 5.8225216e-07 1.0356084e-06)
(0.0028177449 6.4163813e-07 1.0238013e-06)
(0.0028056084 6.990182e-07 1.0118753e-06)
(0.0027937799 7.5455906e-07 9.9986888e-07)
(0.0027822461 8.0834897e-07 9.8781015e-07)
(0.0027709946 8.6046651e-07 9.7571838e-07)
(0.0027600137 9.1102437e-07 9.6360252e-07)
(0.0027492926 9.6019353e-07 9.514472e-07)
(0.0027388207 1.0080048e-06 9.3926718e-07)
(0.0027285887 1.0528482e-06 9.2746539e-07)
(0.0027185878 1.0958665e-06 9.1582914e-07)
(0.0027088089 1.1374999e-06 9.0425307e-07)
(0.0026992438 1.1777678e-06 8.9275939e-07)
(0.0026898847 1.2166578e-06 8.8136516e-07)
(0.0026807244 1.2541698e-06 8.7007976e-07)
(0.0026717559 1.2903142e-06 8.5890698e-07)
(0.0026629726 1.3251069e-06 8.4785153e-07)
(0.0026543682 1.3585739e-06 8.3692255e-07)
(0.0026459367 1.390739e-06 8.261224e-07)
(0.0026376723 1.4216349e-06 8.1545363e-07)
(0.0026295698 1.4512898e-06 8.0491979e-07)
(0.0026216238 1.4797324e-06 7.9452317e-07)
(0.0026138294 1.5069911e-06 7.8426298e-07)
(0.002606182 1.5330932e-06 7.7414043e-07)
(0.0025986769 1.5580625e-06 7.6415148e-07)
(0.0025913099 1.5819212e-06 7.5429519e-07)
(0.0025840769 1.6046818e-06 7.4456409e-07)
(0.0025769739 1.6263493e-06 7.349529e-07)