/*--------------------------------*- C++ -*----------------------------------*\
  =========                 |
  \\      /  F ield         | OpenFOAM: The Open Source CFD Toolbox
   \\    /   O peration     | Website:  https://openfoam.org
    \\  /    A nd           | Version:  7
     \\/     M anipulation  |
\*---------------------------------------------------------------------------*/
FoamFile
{
    version     2.0;
    format      ascii;
    class       surfaceScalarField;
    location    "3550/water";
    object      phi;
}
// * * * * * * * * * * * * * * * * * * * * * * * * * * * * * * * * * * * * * //

dimensions      [1 0 -1 0 0 0 0];

internalField   nonuniform List<scalar> 
156660
(
9.9057239e-05
6.0010402e-06
6.0528092e-06
8.6847498e-05
6.0555113e-06
6.1542307e-06
7.5687891e-05
5.5111362e-06
5.6484701e-06
6.5441704e-05
5.0404181e-06
5.2057689e-06
5.6267661e-05
4.4956436e-06
4.6783991e-06
4.8318019e-05
3.8797648e-06
4.0698777e-06
4.1624776e-05
3.2524448e-06
3.4407981e-06
3.6124897e-05
2.660462e-06
2.839417e-06
3.1692235e-05
2.1345126e-06
2.2981489e-06
2.8162841e-05
1.6926974e-06
1.8366964e-06
2.5361437e-05
1.3399933e-06
1.4614113e-06
2.3124664e-05
1.0698477e-06
1.1669256e-06
2.1315127e-05
8.6875421e-07
9.4078223e-07
1.9825714e-05
7.2110065e-07
7.6831272e-07
1.8577278e-05
6.1248246e-07
6.3595306e-07
1.7513255e-05
5.3125217e-07
5.3277146e-07
1.6593744e-05
4.6879726e-07
4.5071347e-07
1.5790433e-05
4.1913717e-07
3.8417386e-07
1.5082784e-05
3.7829069e-07
3.2935848e-07
1.4455417e-05
3.4367128e-07
2.8369565e-07
1.3896409e-05
3.1361409e-07
2.4539333e-07
1.339622e-05
2.870445e-07
2.1314452e-07
1.2947015e-05
2.6326031e-07
1.8594508e-07
1.2542237e-05
2.4179363e-07
1.6298457e-07
1.2176318e-05
2.2232207e-07
1.4359691e-07
1.1844484e-05
2.0461477e-07
1.2721884e-07
1.1542609e-05
1.8849494e-07
1.1337975e-07
1.1267116e-05
1.7381574e-07
1.0167792e-07
1.1014892e-05
1.6046271e-07
9.1760814e-08
1.0783252e-05
1.483397e-07
8.330059e-08
1.0569851e-05
1.3734904e-07
7.6052123e-08
1.0372614e-05
1.2738864e-07
6.9848332e-08
1.0189731e-05
1.1836808e-07
6.451486e-08
1.001963e-05
1.1020447e-07
5.9896644e-08
9.8609388e-06
1.0281919e-07
5.5871653e-08
9.7124594e-06
9.6137952e-08
5.2341374e-08
9.5731439e-06
9.0091155e-08
4.9224355e-08
9.4420759e-06
8.4614473e-08
4.6453565e-08
9.3184531e-06
7.9648652e-08
4.3974144e-08
9.2015723e-06
7.5139707e-08
4.1741075e-08
9.0908166e-06
7.1038155e-08
3.9717551e-08
8.9856431e-06
6.7301138e-08
3.7872281e-08
8.8855707e-06
6.3894273e-08
3.617816e-08
8.7901757e-06
6.0780106e-08
3.4614936e-08
8.6990829e-06
5.7926152e-08
3.316666e-08
8.6119591e-06
5.5303705e-08
3.1820116e-08
8.5285072e-06
5.2887447e-08
3.0564418e-08
8.4484619e-06
5.0655049e-08
2.9390258e-08
8.3715848e-06
4.8587039e-08
2.8290016e-08
8.2976614e-06
4.6666161e-08
2.7257176e-08
8.2264975e-06
4.4877483e-08
2.628641e-08
8.1579202e-06
4.3208789e-08
2.5368519e-08
8.0917731e-06
4.1649047e-08
2.4498032e-08
8.0279108e-06
4.0187002e-08
2.3675363e-08
7.9662005e-06
3.8812685e-08
2.2897534e-08
7.9065219e-06
3.7518406e-08
2.2160271e-08
7.8487639e-06
3.629783e-08
2.1460177e-08
7.7928242e-06
3.514515e-08
2.0794593e-08
7.7386083e-06
3.405467e-08
2.0161172e-08
7.6860293e-06
3.3021327e-08
1.9557669e-08
7.6350062e-06
3.2040778e-08
1.8982254e-08
7.5854641e-06
3.1109049e-08
1.843305e-08
7.537333e-06
3.0222611e-08
1.7908459e-08
7.4905478e-06
2.9378264e-08
1.7406987e-08
7.4450476e-06
2.8573006e-08
1.6927211e-08
7.4007755e-06
2.7804226e-08
1.6467798e-08
7.3576783e-06
2.706959e-08
1.6027641e-08
7.3157056e-06
2.6367059e-08
1.5605625e-08
7.2748103e-06
2.5694665e-08
1.5200665e-08
7.2349479e-06
2.5050584e-08
1.4811825e-08
7.1960766e-06
2.443309e-08
1.4438198e-08
7.158157e-06
2.384069e-08
1.4078928e-08
7.1211518e-06
2.3271932e-08
1.3733302e-08
7.0850258e-06
2.2725528e-08
1.3400504e-08
7.0497456e-06
2.2200218e-08
1.307993e-08
7.0152798e-06
2.1694914e-08
1.2770875e-08
6.9815984e-06
2.1208593e-08
1.2472763e-08
6.9486733e-06
2.0740238e-08
1.2184906e-08
6.9164775e-06
2.0288977e-08
1.1906788e-08
6.8849857e-06
1.9853962e-08
1.1637819e-08
6.8541739e-06
1.9434357e-08
1.1377452e-08
6.8240193e-06
1.902946e-08
1.112511e-08
6.7945006e-06
1.8638491e-08
1.0880253e-08
6.7655975e-06
1.8260767e-08
1.0642307e-08
6.7372912e-06
1.7895546e-08
1.0410782e-08
6.709564e-06
1.7542095e-08
1.0185081e-08
6.6823995e-06
1.7199638e-08
9.9648833e-09
6.6557824e-06
1.6867289e-08
9.749834e-09
6.6296983e-06
1.6544114e-08
9.5399923e-09
6.6041331e-06
1.6229267e-08
9.3360102e-09
6.5790714e-06
1.5921995e-08
9.1396568e-09
6.554494e-06
1.5622324e-08
8.9550605e-09
6.5303708e-06
1.5332538e-08
8.7906475e-09
6.5066467e-06
1.506046e-08
8.6635886e-09
6.4832094e-06
1.4827796e-08
8.6094926e-09
6.4598103e-06
1.469307e-08
8.7060105e-09
6.4358387e-06
1.4826397e-08
9.1451455e-09
6.4096302e-06
1.5741744e-08
1.0466737e-08
6.3782854e-06
1.8026559e-08
1.3318229e-08
3.2300234e-08
2.7923536e-08
0.00010646494
4.1872385e-06
6.4599816e-06
0.0001002019
5.695418e-06
6.6231353e-06
9.3659588e-05
5.7790389e-06
6.2744098e-06
8.7011589e-05
5.6514782e-06
6.0369387e-06
8.0422927e-05
5.366912e-06
5.7173941e-06
7.4094022e-05
4.9022832e-06
5.3063862e-06
6.8167026e-05
4.3278135e-06
4.8516272e-06
6.2722565e-05
3.717891e-06
4.387032e-06
5.7799049e-05
3.1243144e-06
3.9337145e-06
5.3403345e-05
2.5820689e-06
3.5063329e-06
4.9517402e-05
2.1121062e-06
3.1138299e-06
4.6105482e-05
1.7220197e-06
2.7597474e-06
4.3121558e-05
1.4089355e-06
2.4437429e-06
4.0515558e-05
1.1637552e-06
2.163346e-06
3.8237948e-05
9.7485851e-07
1.9152336e-06
3.6242683e-05
8.3055976e-07
1.6959573e-06
3.4488759e-05
7.2043695e-07
1.5022849e-06
3.2940716e-05
6.3586296e-07
1.3313172e-06
3.1568463e-05
5.7005005e-07
1.1804931e-06
3.0346733e-05
5.1784898e-07
1.0475522e-06
2.9254398e-05
4.7545956e-07
9.3049034e-07
2.8273782e-05
4.4013957e-07
8.2752023e-07
2.7390054e-05
4.0994891e-07
7.3704007e-07
2.6590699e-05
3.8353955e-07
6.5760856e-07
2.5865102e-05
3.5998886e-07
5.8793073e-07
2.5204197e-05
3.3867634e-07
5.2684264e-07
2.4600205e-05
3.1918357e-07
4.733035e-07
2.4046429e-05
3.0120189e-07
4.2639019e-07
2.3537073e-05
2.8455203e-07
3.8526713e-07
2.3067119e-05
2.69111e-07
3.4918238e-07
2.2632208e-05
2.5478167e-07
3.1747786e-07
2.2228528e-05
2.4147385e-07
2.8959532e-07
2.1852744e-05
2.2911074e-07
2.6504126e-07
2.1501947e-05
2.1762895e-07
2.4337257e-07
2.1173591e-05
2.0696953e-07
2.2420572e-07
2.0865444e-05
1.9707567e-07
2.0720866e-07
2.0575549e-05
1.8789253e-07
1.9209398e-07
2.0302183e-05
1.7936725e-07
1.7861343e-07
2.0043829e-05
1.7144911e-07
1.6655323e-07
1.979915e-05
1.6408985e-07
1.5572944e-07
1.956696e-05
1.5724383e-07
1.4598403e-07
1.934621e-05
1.5086896e-07
1.3718216e-07
1.9135969e-05
1.4492653e-07
1.2920883e-07
1.8935407e-05
1.3937904e-07
1.2196305e-07
1.8743783e-05
1.3419229e-07
1.1535762e-07
1.8560435e-05
1.2933511e-07
1.0931727e-07
1.8384766e-05
1.2477909e-07
1.0377717e-07
1.8216241e-05
1.2049851e-07
9.8681319e-08
1.8054377e-05
1.1647012e-07
9.3981338e-08
1.7898734e-05
1.1267291e-07
8.9635413e-08
1.7748917e-05
1.0908822e-07
8.5606994e-08
1.7604563e-05
1.0570007e-07
8.1862389e-08
1.7465345e-05
1.0249341e-07
7.8373274e-08
1.7330962e-05
9.9452985e-08
7.5116971e-08
1.7201138e-05
9.6564405e-08
7.2072711e-08
1.7075619e-05
9.3816629e-08
6.9221137e-08
1.695417e-05
9.1201107e-08
6.6545114e-08
1.6836577e-05
8.870913e-08
6.402954e-08
1.6722638e-05
8.6331963e-08
6.1661052e-08
1.661217e-05
8.4061736e-08
5.9427713e-08
1.6505001e-05
8.1891538e-08
5.7318835e-08
1.640097e-05
7.9814929e-08
5.5324802e-08
1.6299929e-05
7.7826157e-08
5.3437097e-08
1.620174e-05
7.5919845e-08
5.1647909e-08
1.6106272e-05
7.4091012e-08
4.9950138e-08
1.6013404e-05
7.2334973e-08
4.8337396e-08
1.5923022e-05
7.0647726e-08
4.680387e-08
1.5835019e-05
6.9025702e-08
4.5344273e-08
1.5749294e-05
6.7465531e-08
4.3953699e-08
1.5665753e-05
6.5963775e-08
4.2627692e-08
1.5584307e-05
6.4517361e-08
4.1362188e-08
1.5504871e-05
6.3123411e-08
4.0153373e-08
1.5427365e-05
6.1779306e-08
3.8997796e-08
1.5351716e-05
6.0482564e-08
3.7892272e-08
1.5277852e-05
5.9230861e-08
3.6833847e-08
1.5205705e-05
5.8022004e-08
3.5819734e-08
1.5135212e-05
5.6853999e-08
3.4847368e-08
1.5066313e-05
5.5724969e-08
3.3914358e-08
1.499895e-05
5.4633147e-08
3.3018413e-08
1.493307e-05
5.3576748e-08
3.2157425e-08
1.4868621e-05
5.2554216e-08
3.1329409e-08
1.4805554e-05
5.1563947e-08
3.0532428e-08
1.4743823e-05
5.0604514e-08
2.9764657e-08
1.4683386e-05
4.9674281e-08
2.9024391e-08
1.4624199e-05
4.8771798e-08
2.8309871e-08
1.4566226e-05
4.7895439e-08
2.7619555e-08
1.4509431e-05
4.7043476e-08
2.6951979e-08
1.4453778e-05
4.6214107e-08
2.630575e-08
1.4399237e-05
4.5405423e-08
2.5679863e-08
1.4345777e-05
4.4615689e-08
2.507373e-08
1.4293367e-05
4.3844234e-08
2.4487694e-08
1.4241972e-05
4.3092836e-08
2.3923742e-08
1.4191548e-05
4.236991e-08
2.3387136e-08
1.4142019e-05
4.1699333e-08
2.2889649e-08
1.4093249e-05
4.1141646e-08
2.2456637e-08
1.4044951e-05
4.0844645e-08
2.2146556e-08
1.3996485e-05
4.1169167e-08
2.2123042e-08
1.3946229e-05
4.3012306e-08
2.2985388e-08
1.389015e-05
4.8540253e-08
2.5565782e-08
6.3281568e-08
5.0000862e-08
0.00010603565
2.7876425e-06
6.4750379e-06
0.00010074799
4.4145413e-06
6.5685292e-06
9.5493515e-05
4.8594028e-06
6.1741158e-06
9.0256432e-05
4.930369e-06
5.9581921e-06
8.5101366e-05
4.8311767e-06
5.6908011e-06
8.0102875e-05
4.5561761e-06
5.3445981e-06
7.5322251e-05
4.1469521e-06
4.9614853e-06
7.0803266e-05
3.6678925e-06
4.5689837e-06
6.6576264e-05
3.1701904e-06
4.1811254e-06
6.2660725e-05
2.6900109e-06
3.8075976e-06
5.9065443e-05
2.2519319e-06
3.4554566e-06
5.5788936e-05
1.8697304e-06
3.1287958e-06
5.2820978e-05
1.5477473e-06
2.8291458e-06
5.014479e-05
1.2836302e-06
2.5563139e-06
4.7739304e-05
1.07123e-06
2.3091141e-06
4.5581183e-05
9.0281503e-07
2.0858661e-06
4.3646423e-05
7.7048776e-07
1.884709e-06
4.1911533e-05
6.6697372e-07
1.7037793e-06
4.0354306e-05
5.8598198e-07
1.541295e-06
3.8954268e-05
5.2230223e-07
1.3955849e-06
3.769288e-05
4.7175607e-07
1.265091e-06
3.6553576e-05
4.3107985e-07
1.1483634e-06
3.552169e-05
3.9778206e-07
1.0440533e-06
3.4584322e-05
3.6999883e-07
9.5090831e-07
3.3730181e-05
3.4635982e-07
8.6777019e-07
3.2949411e-05
3.2587761e-07
7.9356872e-07
3.2233419e-05
3.0784046e-07
7.2733487e-07
3.1574711e-05
2.9172983e-07
6.6818105e-07
3.0966769e-05
2.7719263e-07
6.1530125e-07
3.0403928e-05
2.63981e-07
5.6797022e-07
2.9881258e-05
2.5190847e-07
5.2554317e-07
2.9394455e-05
2.4082712e-07
4.8745e-07
2.8939761e-05
2.3062159e-07
4.5318328e-07
2.8513895e-05
2.2120152e-07
4.2229387e-07
2.8113985e-05
2.1249194e-07
3.9438674e-07
2.7737518e-05
2.0442797e-07
3.6911492e-07
2.7382285e-05
1.9695194e-07
3.4617385e-07
2.7046344e-05
1.9001179e-07
3.252968e-07
2.6727982e-05
1.8355997e-07
3.0625046e-07
2.6425689e-05
1.7755275e-07
2.8883086e-07
2.6138123e-05
1.7195005e-07
2.7285984e-07
2.5864094e-05
1.6671518e-07
2.5818183e-07
2.5602546e-05
1.6181458e-07
2.4466091e-07
2.535253e-05
1.572171e-07
2.3217764e-07
2.5113201e-05
1.5289443e-07
2.2062727e-07
2.4883797e-05
1.4882096e-07
2.0991772e-07
2.4663634e-05
1.4497365e-07
1.9996811e-07
2.4452094e-05
1.4133184e-07
1.9070707e-07
2.4248615e-05
1.3787697e-07
1.8207154e-07
2.405269e-05
1.3459267e-07
1.7400573e-07
2.3863854e-05
1.314646e-07
1.664599e-07
2.3681684e-05
1.2848056e-07
1.5938923e-07
2.3505794e-05
1.2562918e-07
1.5275412e-07
2.3335829e-05
1.2289869e-07
1.465197e-07
2.3171462e-05
1.2027635e-07
1.406546e-07
2.3012394e-05
1.1775473e-07
1.3513021e-07
2.2858345e-05
1.1532972e-07
1.2992042e-07
2.2709057e-05
1.1299539e-07
1.2500175e-07
2.2564291e-05
1.1074519e-07
1.2035288e-07
2.2423824e-05
1.0857348e-07
1.159546e-07
2.2287451e-05
1.0647548e-07
1.1178925e-07
2.2154978e-05
1.0444702e-07
1.0784078e-07
2.2026226e-05
1.0248422e-07
1.0409457e-07
2.1901025e-05
1.0058352e-07
1.0053712e-07
2.1779218e-05
9.8741547e-08
9.7156178e-08
2.1660658e-05
9.6954919e-08
9.3940309e-08
2.1545205e-05
9.5221283e-08
9.0879037e-08
2.1432729e-05
9.3538805e-08
8.7962808e-08
2.1323107e-05
9.1905329e-08
8.5182595e-08
2.1216222e-05
9.0318508e-08
8.2530166e-08
2.1111965e-05
8.8776429e-08
7.9997865e-08
2.1010233e-05
8.7277136e-08
7.7578639e-08
2.0910927e-05
8.5818949e-08
7.5265827e-08
2.0813956e-05
8.4400328e-08
7.3053415e-08
2.0719232e-05
8.3019691e-08
7.0935641e-08
2.0626671e-05
8.1675638e-08
6.8907173e-08
2.0536195e-05
8.0366812e-08
6.6963109e-08
2.0447729e-05
7.9091946e-08
6.5098754e-08
2.0361203e-05
7.7849799e-08
6.330976e-08
2.0276548e-05
7.6639233e-08
6.1592046e-08
2.0193702e-05
7.5459e-08
5.9941764e-08
2.0112602e-05
7.4307978e-08
5.8355243e-08
2.0033193e-05
7.3184924e-08
5.6829078e-08
1.9955419e-05
7.2088641e-08
5.5360003e-08
1.9879228e-05
7.1017635e-08
5.3944867e-08
1.9804572e-05
6.9970431e-08
5.2580775e-08
1.9731406e-05
6.8945232e-08
5.1264815e-08
1.9659685e-05
6.7940082e-08
4.9994398e-08
1.9589371e-05
6.6953016e-08
4.8767043e-08
1.9520423e-05
6.5982337e-08
4.7580546e-08
1.9452806e-05
6.5028042e-08
4.6433085e-08
1.9386482e-05
6.4094113e-08
4.532376e-08
1.9321404e-05
6.3194682e-08
4.4253066e-08
1.9257511e-05
6.236633e-08
4.3225237e-08
1.9194705e-05
6.1695151e-08
4.2253146e-08
1.9132798e-05
6.1374013e-08
4.13774e-08
1.9071394e-05
6.1822393e-08
4.0750663e-08
1.9009424e-05
6.3924722e-08
4.1057584e-08
1.8944661e-05
6.9304686e-08
4.3998858e-08
7.9170937e-08
7.4661539e-08
0.0001054937
1.9169871e-06
6.4880407e-06
0.00010005365
3.2729596e-06
6.5816334e-06
9.4926077e-05
3.8288995e-06
6.1580776e-06
8.9946373e-05
3.9838109e-06
5.9262629e-06
8.5163276e-05
3.9595077e-06
5.6547657e-06
8.0619137e-05
3.7899369e-06
5.3103784e-06
7.6329462e-05
3.5015547e-06
4.9350725e-06
7.230016e-05
3.1412013e-06
4.5559928e-06
6.8534206e-05
2.7514803e-06
4.1846641e-06
6.5032983e-05
2.3633493e-06
3.8278852e-06
6.1795789e-05
1.9984144e-06
3.490711e-06
5.8818843e-05
1.6703759e-06
3.176301e-06
5.6094717e-05
1.3858295e-06
2.886043e-06
5.3612488e-05
1.1457945e-06
2.6200649e-06
5.1358373e-05
9.4764116e-07
2.3777043e-06
4.9316593e-05
7.8676784e-07
2.1578272e-06
4.7470246e-05
6.5779547e-07
1.9590391e-06
4.5802069e-05
5.5532539e-07
1.7798252e-06
4.4295042e-05
4.7437115e-07
1.6186378e-06
4.293283e-05
4.1056669e-07
1.473948e-06
4.1700078e-05
3.6023237e-07
1.3442759e-06
4.0582591e-05
3.2035743e-07
1.2282094e-06
3.956742e-05
2.8853736e-07
1.1244154e-06
3.8642881e-05
2.6289065e-07
1.0316467e-06
3.7798527e-05
2.4196984e-07
9.4874398e-07
3.7025076e-05
2.2467703e-07
8.7465173e-07
3.6314324e-05
2.10189e-07
8.0840413e-07
3.5659057e-05
1.9788604e-07
7.4911042e-07
3.5052961e-05
1.8731582e-07
6.9597283e-07
3.4490519e-05
1.7814872e-07
6.4827381e-07
3.3966922e-05
1.7013168e-07
6.053744e-07
3.3477973e-05
1.6306725e-07
5.6670865e-07
3.3020016e-05
1.5680294e-07
5.3177543e-07
3.2589865e-05
1.5122054e-07
5.0013243e-07
3.218474e-05
1.462256e-07
4.7139139e-07
3.1802215e-05
1.4174073e-07
4.4521229e-07
3.1440168e-05
1.3770094e-07
4.2129807e-07
3.1096739e-05
1.3405095e-07
3.9938921e-07
3.0770297e-05
1.3074294e-07
3.7925956e-07
3.0459402e-05
1.277352e-07
3.6071195e-07
3.0162787e-05
1.2499096e-07
3.4357479e-07
2.9879325e-05
1.2247786e-07
3.276985e-07
2.960802e-05
1.2016737e-07
3.1295272e-07
2.934798e-05
1.1803381e-07
2.9922354e-07
2.9098408e-05
1.1605462e-07
2.8641139e-07
2.885859e-05
1.1420982e-07
2.7442901e-07
2.8627882e-05
1.1248193e-07
2.632e-07
2.8405701e-05
1.108556e-07
2.5265681e-07
2.819152e-05
1.0931758e-07
2.4274021e-07
2.7984859e-05
1.0785647e-07
2.3339756e-07
2.7785279e-05
1.0646278e-07
2.2458212e-07
2.7592378e-05
1.0512868e-07
2.1625213e-07
2.740579e-05
1.0384735e-07
2.0837033e-07
2.7225174e-05
1.0261115e-07
2.009036e-07
2.705022e-05
1.0140746e-07
1.9382256e-07
2.6880641e-05
1.0023386e-07
1.8710041e-07
2.6716166e-05
9.9092378e-08
1.8071224e-07
2.6556546e-05
9.7980008e-08
1.7463558e-07
2.6401548e-05
9.6892498e-08
1.6885013e-07
2.6250957e-05
9.5827058e-08
1.633374e-07
2.610457e-05
9.4781695e-08
1.5808045e-07
2.5962199e-05
9.375473e-08
1.5306361e-07
2.5823666e-05
9.2744884e-08
1.4827257e-07
2.5688804e-05
9.1750998e-08
1.4369412e-07
2.5557458e-05
9.0771795e-08
1.39316e-07
2.5429481e-05
8.9805214e-08
1.3512696e-07
2.5304734e-05
8.8851483e-08
1.3111646e-07
2.5183087e-05
8.7911229e-08
1.2727466e-07
2.5064416e-05
8.6983938e-08
1.2359239e-07
2.4948604e-05
8.6068904e-08
1.2006118e-07
2.4835542e-05
8.5165756e-08
1.1667299e-07
2.4725124e-05
8.4274298e-08
1.1342041e-07
2.4617252e-05
8.3394275e-08
1.1029654e-07
2.4511832e-05
8.25255e-08
1.0729478e-07
2.4408775e-05
8.1667754e-08
1.0440898e-07
2.4307997e-05
8.082101e-08
1.0163343e-07
2.4209416e-05
7.998505e-08
9.8962665e-08
2.4112956e-05
7.9159771e-08
9.6391546e-08
2.4018546e-05
7.8345031e-08
9.3915281e-08
2.3926115e-05
7.7540694e-08
9.1529293e-08
2.3835598e-05
7.6746559e-08
8.922926e-08
2.3746933e-05
7.596234e-08
8.7011016e-08
2.366006e-05
7.5187658e-08
8.4870742e-08
2.3574922e-05
7.4422004e-08
8.2804561e-08
2.3491466e-05
7.3664643e-08
8.0808943e-08
2.3409641e-05
7.2914645e-08
7.8880378e-08
2.33294e-05
7.2170687e-08
7.7015505e-08
2.3250698e-05
7.1431311e-08
7.5211012e-08
2.3173492e-05
7.0694842e-08
7.3463638e-08
2.3097745e-05
6.9960232e-08
7.1770082e-08
2.3023418e-05
6.9227967e-08
7.0126991e-08
2.2950477e-05
6.8503499e-08
6.8531193e-08
2.2878889e-05
6.7802856e-08
6.6979694e-08
2.2808619e-05
6.7165061e-08
6.5471569e-08
2.2739625e-05
6.6675235e-08
6.4013342e-08
2.267185e-05
6.650705e-08
6.2642341e-08
2.2605149e-05
6.6990724e-08
6.1532392e-08
2.2538888e-05
6.8686019e-08
6.14999e-08
2.2471121e-05
7.2226952e-08
6.4845139e-08
7.6722815e-08
9.8461324e-08
0.0001051979
1.3340885e-06
6.4961222e-06
9.9496562e-05
2.3731022e-06
6.6011947e-06
9.4262459e-05
2.9019223e-06
6.1610799e-06
8.9251186e-05
3.0856641e-06
5.9094196e-06
8.4493497e-05
3.0947346e-06
5.6224614e-06
8.0033635e-05
2.9846656e-06
5.265134e-06
7.5876907e-05
2.7790155e-06
4.8792667e-06
7.2014635e-05
2.5106844e-06
4.4927895e-06
6.8436293e-05
2.2128728e-06
4.1169489e-06
6.5131387e-05
1.9107259e-06
3.7575292e-06
6.208941e-05
1.621732e-06
3.4186596e-06
5.9299432e-05
1.3573877e-06
3.1029661e-06
5.6749589e-05
1.1240344e-06
2.8116386e-06
5.4426788e-05
9.2377941e-07
2.5448158e-06
5.2316754e-05
7.5572798e-07
2.3019466e-06
5.0404313e-05
6.1717851e-07
2.0820302e-06
4.8673788e-05
5.045435e-07
1.8837772e-06
4.7109414e-05
4.1397181e-07
1.7057274e-06
4.5695713e-05
3.4173651e-07
1.5463363e-06
4.4417792e-05
2.8445145e-07
1.4040359e-06
4.3261575e-05
2.3917111e-07
1.277278e-06
4.2213952e-05
2.0341502e-07
1.1645652e-06
4.1262871e-05
1.7514741e-07
1.0644718e-06
4.039737e-05
1.5273232e-07
9.7565898e-07
3.9607583e-05
1.3487529e-07
8.9688145e-07
3.8884688e-05
1.2055568e-07
8.2701641e-07
3.8220848e-05
1.0901092e-07
7.6501854e-07
3.7609155e-05
9.9633847e-08
7.0994486e-07
3.7043542e-05
9.1977465e-08
6.609509e-07
3.6518702e-05
8.5705801e-08
6.172829e-07
3.6030009e-05
8.0552357e-08
5.7827306e-07
3.5573433e-05
7.6308258e-08
5.4333414e-07
3.5145475e-05
7.2811268e-08
5.1195031e-07
3.4743091e-05
6.9934123e-08
4.8367021e-07
3.4363641e-05
6.7575426e-08
4.5810065e-07
3.4004828e-05
6.5652867e-08
4.3489997e-07
3.3664659e-05
6.4098575e-08
4.1377211e-07
3.3341393e-05
6.2855892e-08
3.9446095e-07
3.3033513e-05
6.1876992e-08
3.767453e-07
3.2739693e-05
6.1121078e-08
3.6043423e-07
3.2458768e-05
6.0553085e-08
3.4536328e-07
3.2189712e-05
6.0142722e-08
3.3139056e-07
3.1931622e-05
5.986368e-08
3.1839377e-07
3.1683696e-05
5.9693155e-08
3.0626736e-07
3.1445219e-05
5.9611242e-08
2.9492012e-07
3.1215555e-05
5.9600635e-08
2.8427314e-07
3.0994132e-05
5.9646552e-08
2.7425805e-07
3.0780436e-05
5.973615e-08
2.6481538e-07
3.0574002e-05
5.9858653e-08
2.5589335e-07
3.0374407e-05
6.0004973e-08
2.4744663e-07
3.0181267e-05
6.0167624e-08
2.3943549e-07
2.9994229e-05
6.0341215e-08
2.3182487e-07
2.9812971e-05
6.0521817e-08
2.2458372e-07
2.9637193e-05
6.0704437e-08
2.1768456e-07
2.9466629e-05
6.0867273e-08
2.1110457e-07
2.9301024e-05
6.1016984e-08
2.0482179e-07
2.914014e-05
6.1160866e-08
1.9881567e-07
2.8983756e-05
6.1294935e-08
1.9306839e-07
2.8831669e-05
6.1415436e-08
1.8756387e-07
2.8683688e-05
6.1520953e-08
1.8228763e-07
2.8539633e-05
6.1610552e-08
1.7722633e-07
2.8399336e-05
6.1683808e-08
1.7236781e-07
2.8262639e-05
6.174048e-08
1.6770086e-07
2.8129394e-05
6.1780689e-08
1.632152e-07
2.7999461e-05
6.1803896e-08
1.5890123e-07
2.7872709e-05
6.1807395e-08
1.5475037e-07
2.7749012e-05
6.1793586e-08
1.5075441e-07
2.7628253e-05
6.1764859e-08
1.4690558e-07
2.7510319e-05
6.1720999e-08
1.4319659e-07
2.7395105e-05
6.1662096e-08
1.3962084e-07
2.728251e-05
6.1588627e-08
1.3617199e-07
2.7172439e-05
6.1501032e-08
1.3284419e-07
2.7064802e-05
6.1399981e-08
1.2963191e-07
2.6959511e-05
6.1285949e-08
1.2652991e-07
2.6856486e-05
6.1159534e-08
1.2353325e-07
2.6755649e-05
6.1021316e-08
1.2063731e-07
2.6656924e-05
6.0871875e-08
1.1783766e-07
2.6560242e-05
6.0711739e-08
1.1513014e-07
2.6465535e-05
6.054139e-08
1.1251077e-07
2.6372738e-05
6.0361327e-08
1.099758e-07
2.6281791e-05
6.0171951e-08
1.0752157e-07
2.6192636e-05
5.997355e-08
1.0514469e-07
2.6105215e-05
5.9766329e-08
1.0284184e-07
2.6019477e-05
5.9550269e-08
1.0060973e-07
2.5935371e-05
5.9325143e-08
9.8445297e-08
2.585285e-05
5.9090498e-08
9.6345396e-08
2.5771868e-05
5.8845469e-08
9.4306927e-08
2.5692384e-05
5.8588987e-08
9.232673e-08
2.5614357e-05
5.8319785e-08
9.0401453e-08
2.5537753e-05
5.8037064e-08
8.8527329e-08
2.5462539e-05
5.7741615e-08
8.6700202e-08
2.5388689e-05
5.7438408e-08
8.4915182e-08
2.5316184e-05
5.7141414e-08
8.316663e-08
2.5245017e-05
5.6882571e-08
8.1449626e-08
2.51752e-05
5.6726035e-08
7.9765855e-08
2.510677e-05
5.6787906e-08
7.8149217e-08
2.5039729e-05
5.7251583e-08
7.6780996e-08
2.4973573e-05
5.8330914e-08
7.6510199e-08
2.4906079e-05
5.9989457e-08
7.9732194e-08
6.0714964e-08
1.1287821e-07
0.00010503672
9.0789373e-07
6.5005614e-06
9.9140653e-05
1.6524914e-06
6.6166801e-06
9.3788329e-05
2.0825241e-06
6.1717217e-06
8.8708526e-05
2.2549373e-06
5.91053e-06
8.3909682e-05
2.278404e-06
5.6151748e-06
7.9437109e-05
2.2074821e-06
5.2497564e-06
7.5296201e-05
2.0645348e-06
4.8553893e-06
7.1474034e-05
1.8722543e-06
4.4605969e-06
6.7955013e-05
1.6547667e-06
4.0771269e-06
6.4723621e-05
1.4313505e-06
3.7107669e-06
6.1764423e-05
1.2154297e-06
3.3655007e-06
5.9062056e-05
1.015864e-06
3.0438911e-06
5.6601108e-05
8.378274e-07
2.7471548e-06
5.4365944e-05
6.8344649e-07
2.475497e-06
5.2340648e-05
5.5258525e-07
2.2284383e-06
5.0509125e-05
4.4366549e-07
2.0050361e-06
4.8855299e-05
3.5433456e-07
1.8040352e-06
4.7363353e-05
2.819359e-07
1.6239821e-06
4.6017963e-05
2.2381346e-07
1.4633127e-06
4.4804502e-05
1.774938e-07
1.320418e-06
4.3709199e-05
1.4078089e-07
1.1936935e-06
4.2719248e-05
1.1179153e-07
1.081575e-06
4.1822875e-05
8.895451e-08
9.8256584e-07
4.1009364e-05
7.098798e-08
8.9525473e-07
4.0269054e-05
5.6861824e-08
8.1832383e-07
3.9593306e-05
4.5719139e-08
7.5058477e-07
3.8974405e-05
3.6977864e-08
6.9093439e-07
3.8405585e-05
3.0067369e-08
6.3838632e-07
3.7880869e-05
2.4650831e-08
5.9204242e-07
3.7395029e-05
2.0439988e-08
5.5110608e-07
3.6943514e-05
1.7190283e-08
5.1487714e-07
3.6522366e-05
1.4716761e-08
4.8273957e-07
3.6128148e-05
1.2874784e-08
4.541539e-07
3.5757883e-05
1.1549902e-08
4.2864943e-07
3.5408991e-05
1.0650755e-08
4.0581708e-07
3.5079238e-05
1.010361e-08
3.8530226e-07
3.4766689e-05
9.8482488e-09
3.6679878e-07
3.4469668e-05
9.8350853e-09
3.5004233e-07
3.4186716e-05
1.002292e-08
3.3480554e-07
3.3916567e-05
1.0377051e-08
3.2089287e-07
3.3658116e-05
1.0868095e-08
3.0813659e-07
3.3410395e-05
1.1470991e-08
2.9639283e-07
3.3172556e-05
1.2164263e-08
2.8553825e-07
3.2943852e-05
1.2929358e-08
2.7546717e-07
3.2723625e-05
1.3750196e-08
2.6608891e-07
3.2511286e-05
1.4613093e-08
2.5732571e-07
3.2306316e-05
1.5506216e-08
2.4911065e-07
3.2108246e-05
1.6419587e-08
2.4138622e-07
3.1916658e-05
1.7344623e-08
2.3410269e-07
3.1731171e-05
1.8274287e-08
2.272171e-07
3.1551444e-05
1.9203143e-08
2.2069214e-07
3.1377162e-05
2.0127717e-08
2.1449508e-07
3.1208038e-05
2.1048631e-08
2.0859681e-07
3.10438e-05
2.1972763e-08
2.0297057e-07
3.0884232e-05
2.2827838e-08
1.9760737e-07
3.0729103e-05
2.3662974e-08
1.9248231e-07
3.05782e-05
2.4489989e-08
1.875738e-07
3.0431331e-05
2.529627e-08
1.8286761e-07
3.0288318e-05
2.6077977e-08
1.7835077e-07
3.0148994e-05
2.6834301e-08
1.7401107e-07
3.0013202e-05
2.7564675e-08
1.6983754e-07
2.9880797e-05
2.8268956e-08
1.6582022e-07
2.975164e-05
2.894746e-08
1.6195015e-07
2.9625601e-05
2.9600784e-08
1.5821896e-07
2.9502557e-05
3.0228568e-08
1.5461919e-07
2.9382396e-05
3.0823616e-08
1.5114467e-07
2.9265007e-05
3.1393133e-08
1.4778877e-07
2.9150287e-05
3.1939592e-08
1.4454533e-07
2.9038137e-05
3.2461895e-08
1.4140896e-07
2.8928465e-05
3.2960068e-08
1.3837461e-07
2.8821181e-05
3.34347e-08
1.3543748e-07
2.8716203e-05
3.3886353e-08
1.3259328e-07
2.8613449e-05
3.431556e-08
1.2983785e-07
2.8512845e-05
3.472287e-08
1.2716736e-07
2.8414317e-05
3.5108961e-08
1.2457814e-07
2.8317797e-05
3.5474444e-08
1.220668e-07
2.8223219e-05
3.5819895e-08
1.1963008e-07
2.813052e-05
3.614593e-08
1.1726492e-07
2.803964e-05
3.6453054e-08
1.1496837e-07
2.7950522e-05
3.674188e-08
1.1273775e-07
2.7863111e-05
3.701284e-08
1.1057027e-07
2.7777354e-05
3.7266254e-08
1.0846341e-07
2.7693204e-05
3.7502463e-08
1.0641473e-07
2.761061e-05
3.7721603e-08
1.0442172e-07
2.752953e-05
3.792356e-08
1.0248202e-07
2.7449919e-05
3.8107981e-08
1.0059306e-07
2.7371738e-05
3.8274286e-08
9.8752299e-08
2.7294949e-05
3.8421522e-08
9.6956902e-08
2.7219516e-05
3.8548714e-08
9.5203618e-08
2.714541e-05
3.8655081e-08
9.3488588e-08
2.7072603e-05
3.874113e-08
9.180693e-08
2.7001079e-05
3.881025e-08
9.0152296e-08
2.6930832e-05
3.8872112e-08
8.851655e-08
2.6861876e-05
3.8947382e-08
8.689054e-08
2.679426e-05
3.90735e-08
8.5269201e-08
2.6728065e-05
3.9306935e-08
8.3675932e-08
2.6663337e-05
3.9708323e-08
8.227118e-08
2.659956e-05
4.0271927e-08
8.1836147e-08
2.6534295e-05
4.0698009e-08
8.4555735e-08
3.9620854e-08
1.1507133e-07
0.00010494757
5.681108e-07
6.5033076e-06
9.8925416e-05
1.0462983e-06
6.6283516e-06
9.3480449e-05
1.3439844e-06
6.1835065e-06
8.8341777e-05
1.4751324e-06
5.9184763e-06
8.3502084e-05
1.4993911e-06
5.6187065e-06
7.9004057e-05
1.4572411e-06
5.2482679e-06
7.4853978e-05
1.3667383e-06
4.8478757e-06
7.1037378e-05
1.2423973e-06
4.4464569e-06
6.7536062e-05
1.0997693e-06
4.0563128e-06
6.4331998e-05
9.5192359e-07
3.683491e-06
6.1407318e-05
8.0805753e-07
3.3320524e-06
5.8744339e-05
6.7422203e-07
3.0046209e-06
5.6325632e-05
5.5404399e-07
2.7024907e-06
5.4133973e-05
4.4916747e-07
2.4259383e-06
5.2152298e-05
3.5972399e-07
2.174536e-06
5.0363747e-05
2.8484509e-07
1.9473717e-06
4.875178e-05
2.231e-07
1.7432015e-06
4.7300339e-05
1.7281167e-07
1.5605647e-06
4.5994012e-05
1.322657e-07
1.3978748e-06
4.4818177e-05
9.9840006e-08
1.2534891e-06
4.3759121e-05
7.4075583e-08
1.1257614e-06
4.2804123e-05
5.3707606e-08
1.0130814e-06
4.1941503e-05
3.7671202e-08
9.1390377e-07
4.1160627e-05
2.5096444e-08
8.2676732e-07
4.0451891e-05
1.5294183e-08
7.5030388e-07
3.980679e-05
7.528167e-09
6.8329174e-07
3.9217543e-05
1.6727536e-09
6.2455203e-07
3.8677513e-05
-3.0331094e-09
5.7313082e-07
3.8180739e-05
-6.6486641e-09
5.2807354e-07
3.7722004e-05
-9.3595074e-09
4.885345e-07
3.7296777e-05
-1.1371814e-08
4.5378926e-07
3.6901112e-05
-1.2818257e-08
4.2319915e-07
3.6531588e-05
-1.3805306e-08
3.9620481e-07
3.6185236e-05
-1.4417506e-08
3.7231876e-07
3.5859491e-05
-1.4721913e-08
3.5111774e-07
3.5552132e-05
-1.4772648e-08
3.3223578e-07
3.5261237e-05
-1.4613912e-08
3.1535728e-07
3.4985143e-05
-1.4282162e-08
3.0021089e-07
3.472241e-05
-1.3807713e-08
2.8656376e-07
3.4471787e-05
-1.3215883e-08
2.742163e-07
3.4232185e-05
-1.2528182e-08
2.6299767e-07
3.4002657e-05
-1.1762787e-08
2.5276172e-07
3.3782373e-05
-1.0935199e-08
2.4338339e-07
3.3570606e-05
-1.0058732e-08
2.3475558e-07
3.3366714e-05
-9.1447179e-09
2.2678674e-07
3.3170131e-05
-8.202804e-09
2.1939833e-07
3.2980356e-05
-7.2412191e-09
2.1252301e-07
3.279694e-05
-6.2668729e-09
2.0610283e-07
3.2619482e-05
-5.2855404e-09
2.0008783e-07
3.2447623e-05
-4.301812e-09
1.9443478e-07
3.228104e-05
-3.3190573e-09
1.8910588e-07
3.2119438e-05
-2.3383133e-09
1.8406734e-07
3.1962554e-05
-1.3530827e-09
1.7928648e-07
3.1810075e-05
-2.7634033e-10
1.7472764e-07
3.1661878e-05
5.8583187e-10
1.7043905e-07
3.1517732e-05
1.4356008e-09
1.6637294e-07
3.1377429e-05
2.3038147e-09
1.6248958e-07
3.1240792e-05
3.1586134e-09
1.5877489e-07
3.1107656e-05
3.9969643e-09
1.5521719e-07
3.0977867e-05
4.8171662e-09
1.5180547e-07
3.0851284e-05
5.6179725e-09
1.4852967e-07
3.0727773e-05
6.3990256e-09
1.4538076e-07
3.0607209e-05
7.1609537e-09
1.4235056e-07
3.0489473e-05
7.9059583e-09
1.3943121e-07
3.037445e-05
8.6357577e-09
1.3661576e-07
3.0262049e-05
9.3206472e-09
1.3390394e-07
3.0152163e-05
9.9938037e-09
1.3128565e-07
3.0044697e-05
1.065038e-08
1.2875512e-07
2.9939564e-05
1.1286732e-08
1.2630827e-07
2.983668e-05
1.1903208e-08
1.2394087e-07
2.9735965e-05
1.2500161e-08
1.2164884e-07
2.9637345e-05
1.307786e-08
1.1942844e-07
2.9540748e-05
1.3636676e-08
1.1727617e-07
2.9446105e-05
1.4177003e-08
1.151888e-07
2.9353352e-05
1.4699162e-08
1.1316337e-07
2.9262425e-05
1.5203537e-08
1.1119703e-07
2.9173268e-05
1.569048e-08
1.0928707e-07
2.9085822e-05
1.6160385e-08
1.0743106e-07
2.9000035e-05
1.66136e-08
1.0562662e-07
2.8915855e-05
1.7050418e-08
1.0387156e-07
2.8833233e-05
1.7471126e-08
1.0216362e-07
2.8752123e-05
1.7875956e-08
1.0050079e-07
2.8672479e-05
1.8265076e-08
9.8881084e-08
2.8594259e-05
1.8638524e-08
9.7302463e-08
2.8517424e-05
1.8996213e-08
9.5762932e-08
2.8441934e-05
1.9337791e-08
9.4260358e-08
2.8367753e-05
1.9662769e-08
9.2792344e-08
2.8294848e-05
1.9970449e-08
9.1356229e-08
2.8223187e-05
2.0260006e-08
8.9948839e-08
2.8152746e-05
2.0530733e-08
8.8565898e-08
2.8083503e-05
2.0782595e-08
8.7201777e-08
2.8015447e-05
2.101752e-08
8.584867e-08
2.7948582e-05
2.1240695e-08
8.4495823e-08
2.7882937e-05
2.1462673e-08
8.312953e-08
2.7818574e-05
2.1699953e-08
8.1736541e-08
2.7755588e-05
2.1969246e-08
8.0324362e-08
2.7694014e-05
2.2266124e-08
7.9016073e-08
2.7633299e-05
2.250626e-08
7.848063e-08
2.7571004e-05
2.2393378e-08
8.0599452e-08
2.0993073e-08
1.0779948e-07
0.00010489986
2.7443377e-07
6.5049155e-06
9.8802772e-05
5.0716631e-07
6.6362236e-06
9.329591e-05
6.5854976e-07
6.1922972e-06
8.8116302e-05
7.2902544e-07
5.9257148e-06
8.3248198e-05
7.4378812e-07