/*--------------------------------*- C++ -*----------------------------------*\
  =========                 |
  \\      /  F ield         | OpenFOAM: The Open Source CFD Toolbox
   \\    /   O peration     | Website:  https://openfoam.org
    \\  /    A nd           | Version:  7
     \\/     M anipulation  |
\*---------------------------------------------------------------------------*/
FoamFile
{
    version     2.0;
    format      ascii;
    class       surfaceScalarField;
    location    "2050/water";
    object      phi;
}
// * * * * * * * * * * * * * * * * * * * * * * * * * * * * * * * * * * * * * //

dimensions      [1 0 -1 0 0 0 0];

internalField   nonuniform List<scalar> 
156660
(
9.9057239e-05
6.0010402e-06
6.0528092e-06
8.6847497e-05
6.0555113e-06
6.1542307e-06
7.5687891e-05
5.5111362e-06
5.6484701e-06
6.5441704e-05
5.0404181e-06
5.2057689e-06
5.6267661e-05
4.4956436e-06
4.6783992e-06
4.8318019e-05
3.8797648e-06
4.0698777e-06
4.1624776e-05
3.2524449e-06
3.4407982e-06
3.6124897e-05
2.660462e-06
2.839417e-06
3.1692235e-05
2.1345126e-06
2.2981489e-06
2.8162841e-05
1.6926975e-06
1.8366964e-06
2.5361437e-05
1.3399934e-06
1.4614113e-06
2.3124664e-05
1.0698477e-06
1.1669256e-06
2.1315127e-05
8.6875421e-07
9.4078227e-07
1.9825714e-05
7.2110064e-07
7.6831272e-07
1.8577278e-05
6.1248245e-07
6.3595305e-07
1.7513255e-05
5.312522e-07
5.3277148e-07
1.6593744e-05
4.6879727e-07
4.5071349e-07
1.5790433e-05
4.1913718e-07
3.8417386e-07
1.5082784e-05
3.7829068e-07
3.2935848e-07
1.4455417e-05
3.436713e-07
2.8369564e-07
1.3896409e-05
3.1361406e-07
2.4539332e-07
1.339622e-05
2.8704449e-07
2.1314451e-07
1.2947015e-05
2.6326031e-07
1.8594509e-07
1.2542237e-05
2.4179364e-07
1.6298461e-07
1.2176318e-05
2.2232208e-07
1.4359689e-07
1.1844484e-05
2.0461481e-07
1.272188e-07
1.1542609e-05
1.8849494e-07
1.1337972e-07
1.1267116e-05
1.7381571e-07
1.0167792e-07
1.1014892e-05
1.604627e-07
9.1760812e-08
1.0783252e-05
1.4833969e-07
8.3300597e-08
1.0569851e-05
1.3734905e-07
7.6052145e-08
1.0372614e-05
1.2738864e-07
6.9848324e-08
1.0189731e-05
1.183681e-07
6.4514825e-08
1.001963e-05
1.1020447e-07
5.989661e-08
9.8609388e-06
1.0281922e-07
5.5871662e-08
9.7124595e-06
9.613797e-08
5.2341379e-08
9.5731439e-06
9.0091186e-08
4.9224347e-08
9.4420759e-06
8.4614454e-08
4.6453576e-08
9.3184531e-06
7.9648649e-08
4.3974141e-08
9.2015723e-06
7.5139705e-08
4.1741089e-08
9.0908166e-06
7.1038127e-08
3.9717568e-08
8.9856432e-06
6.7301132e-08
3.7872332e-08
8.8855708e-06
6.3894277e-08
3.6178197e-08
8.7901757e-06
6.0780122e-08
3.4614932e-08
8.6990829e-06
5.7926169e-08
3.3166652e-08
8.611959e-06
5.53037e-08
3.1820111e-08
8.5285072e-06
5.2887411e-08
3.0564433e-08
8.4484619e-06
5.0655048e-08
2.9390297e-08
8.3715848e-06
4.8587044e-08
2.8290034e-08
8.2976614e-06
4.6666181e-08
2.7257211e-08
8.2264975e-06
4.4877476e-08
2.6286404e-08
8.1579202e-06
4.3208762e-08
2.5368536e-08
8.0917731e-06
4.1649024e-08
2.4498058e-08
8.0279108e-06
4.0186992e-08
2.3675355e-08
7.9662006e-06
3.8812711e-08
2.2897515e-08
7.906522e-06
3.7518446e-08
2.2160236e-08
7.8487639e-06
3.6297869e-08
2.1460156e-08
7.7928242e-06
3.5145146e-08
2.0794577e-08
7.7386083e-06
3.4054663e-08
2.0161148e-08
7.6860293e-06
3.3021355e-08
1.9557694e-08
7.6350063e-06
3.2040789e-08
1.898228e-08
7.5854641e-06
3.1109044e-08
1.8433084e-08
7.537333e-06
3.0222605e-08
1.7908498e-08
7.4905478e-06
2.9378226e-08
1.7407001e-08
7.4450476e-06
2.8572997e-08
1.6927191e-08
7.4007756e-06
2.7804213e-08
1.6467771e-08
7.3576783e-06
2.7069581e-08
1.6027628e-08
7.3157056e-06
2.6367019e-08
1.5605622e-08
7.2748103e-06
2.5694657e-08
1.5200682e-08
7.2349479e-06
2.5050549e-08
1.4811829e-08
7.1960766e-06
2.4433061e-08
1.4438176e-08
7.158157e-06
2.3840721e-08
1.4078931e-08
7.1211518e-06
2.3271932e-08
1.3733273e-08
7.0850258e-06
2.2725475e-08
1.3400515e-08
7.0497456e-06
2.2200208e-08
1.3079942e-08
7.0152798e-06
2.169492e-08
1.2770915e-08
6.9815985e-06
2.1208573e-08
1.2472767e-08
6.9486733e-06
2.0740233e-08
1.2184937e-08
6.9164775e-06
2.0288982e-08
1.1906803e-08
6.8849857e-06
1.985395e-08
1.1637826e-08
6.8541739e-06
1.9434356e-08
1.1377455e-08
6.8240194e-06
1.9029461e-08
1.1125121e-08
6.7945006e-06
1.8638494e-08
1.0880245e-08
6.7655975e-06
1.8260775e-08
1.0642313e-08
6.7372912e-06
1.7895564e-08
1.0410743e-08
6.709564e-06
1.7542109e-08
1.0185096e-08
6.6823995e-06
1.7199662e-08
9.9648976e-09
6.6557824e-06
1.6867282e-08
9.7498272e-09
6.6296983e-06
1.6544149e-08
9.5399878e-09
6.6041331e-06
1.6229261e-08
9.3359994e-09
6.5790714e-06
1.5921965e-08
9.1397019e-09
6.554494e-06
1.5622299e-08
8.9550845e-09
6.5303708e-06
1.533252e-08
8.7906466e-09
6.5066467e-06
1.506047e-08
8.6635973e-09
6.4832094e-06
1.4827811e-08
8.6095012e-09
6.4598103e-06
1.4693038e-08
8.706009e-09
6.4358387e-06
1.4826383e-08
9.1451405e-09
6.4096302e-06
1.5741748e-08
1.0466743e-08
6.3782855e-06
1.8026535e-08
1.3318236e-08
3.2300247e-08
2.7923543e-08
0.00010646494
4.1872385e-06
6.4599816e-06
0.0001002019
5.695418e-06
6.6231353e-06
9.3659588e-05
5.7790389e-06
6.2744098e-06
8.7011589e-05
5.6514782e-06
6.0369387e-06
8.0422927e-05
5.366912e-06
5.7173941e-06
7.4094022e-05
4.9022832e-06
5.3063862e-06
6.8167026e-05
4.3278135e-06
4.8516273e-06
6.2722565e-05
3.717891e-06
4.387032e-06
5.7799049e-05
3.1243144e-06
3.9337144e-06
5.3403345e-05
2.5820689e-06
3.5063328e-06
4.9517402e-05
2.1121062e-06
3.1138299e-06
4.6105482e-05
1.7220197e-06
2.7597473e-06
4.3121558e-05
1.4089355e-06
2.4437429e-06
4.0515558e-05
1.1637552e-06
2.163346e-06
3.8237948e-05
9.7485852e-07
1.9152336e-06
3.6242683e-05
8.3055975e-07
1.6959573e-06
3.4488759e-05
7.2043696e-07
1.5022849e-06
3.2940716e-05
6.3586295e-07
1.3313172e-06
3.1568463e-05
5.7005004e-07
1.1804931e-06
3.0346733e-05
5.1784892e-07
1.0475521e-06
2.9254398e-05
4.7545952e-07
9.3049033e-07
2.8273782e-05
4.4013958e-07
8.2752024e-07
2.7390054e-05
4.099489e-07
7.3704009e-07
2.6590699e-05
3.8353954e-07
6.5760859e-07
2.5865102e-05
3.599889e-07
5.8793073e-07
2.5204198e-05
3.3867632e-07
5.2684262e-07
2.4600205e-05
3.1918361e-07
4.733035e-07
2.4046429e-05
3.0120188e-07
4.2639019e-07
2.3537073e-05
2.8455204e-07
3.8526716e-07
2.3067119e-05
2.6911099e-07
3.491824e-07
2.2632208e-05
2.5478165e-07
3.1747786e-07
2.2228528e-05
2.4147382e-07
2.8959532e-07
2.1852744e-05
2.2911073e-07
2.6504125e-07
2.1501947e-05
2.1762894e-07
2.4337258e-07
2.1173591e-05
2.0696955e-07
2.2420573e-07
2.0865444e-05
1.9707568e-07
2.0720864e-07
2.0575549e-05
1.8789253e-07
1.9209398e-07
2.0302183e-05
1.7936722e-07
1.7861345e-07
2.0043829e-05
1.7144909e-07
1.6655325e-07
1.979915e-05
1.640898e-07
1.5572943e-07
1.956696e-05
1.5724381e-07
1.4598404e-07
1.934621e-05
1.5086894e-07
1.3718219e-07
1.9135969e-05
1.4492652e-07
1.292088e-07
1.8935407e-05
1.3937905e-07
1.2196305e-07
1.8743783e-05
1.3419227e-07
1.153576e-07
1.8560435e-05
1.2933511e-07
1.0931726e-07
1.8384766e-05
1.2477909e-07
1.0377717e-07
1.8216241e-05
1.2049851e-07
9.8681309e-08
1.8054377e-05
1.1647013e-07
9.3981325e-08
1.7898734e-05
1.1267292e-07
8.9635411e-08
1.7748917e-05
1.0908825e-07
8.5606969e-08
1.7604563e-05
1.0570005e-07
8.1862431e-08
1.7465345e-05
1.0249341e-07
7.8373304e-08
1.7330962e-05
9.9453e-08
7.511698e-08
1.7201138e-05
9.6564399e-08
7.2072711e-08
1.7075619e-05
9.3816641e-08
6.922113e-08
1.695417e-05
9.1201118e-08
6.6545102e-08
1.6836577e-05
8.8709102e-08
6.4029539e-08
1.6722638e-05
8.633196e-08
6.166106e-08
1.661217e-05
8.4061759e-08
5.9427687e-08
1.6505001e-05
8.1891549e-08
5.7318803e-08
1.640097e-05
7.981492e-08
5.5324861e-08
1.6299929e-05
7.7826158e-08
5.3437133e-08
1.620174e-05
7.5919855e-08
5.1647896e-08
1.6106272e-05
7.4091031e-08
4.9950121e-08
1.6013404e-05
7.233499e-08
4.8337384e-08
1.5923022e-05
7.0647703e-08
4.6803862e-08
1.5835019e-05
6.9025734e-08
4.5344265e-08
1.5749294e-05
6.746553e-08
4.3953675e-08
1.5665753e-05
6.5963764e-08
4.2627685e-08
1.5584307e-05
6.4517377e-08
4.1362168e-08
1.5504871e-05
6.3123413e-08
4.0153346e-08
1.5427365e-05
6.1779295e-08
3.8997766e-08
1.5351716e-05
6.0482539e-08
3.7892269e-08
1.5277852e-05
5.9230818e-08
3.6833865e-08
1.5205705e-05
5.8021988e-08
3.581976e-08
1.5135212e-05
5.685399e-08
3.4847402e-08
1.5066313e-05
5.5724988e-08
3.3914344e-08
1.499895e-05
5.4633131e-08
3.3018408e-08
1.493307e-05
5.3576706e-08
3.2157465e-08
1.4868621e-05
5.2554201e-08
3.1329392e-08
1.4805554e-05
5.1563959e-08
3.0532448e-08
1.4743823e-05
5.060448e-08
2.9764677e-08
1.4683386e-05
4.9674303e-08
2.9024415e-08
1.4624199e-05
4.877181e-08
2.8309894e-08
1.4566226e-05
4.7895486e-08
2.7619597e-08
1.4509431e-05
4.7043527e-08
2.6951995e-08
1.4453778e-05
4.6214102e-08
2.6305771e-08
1.4399237e-05
4.5405402e-08
2.5679916e-08
1.4345777e-05
4.4615701e-08
2.507377e-08
1.4293367e-05
4.3844242e-08
2.4487744e-08
1.4241972e-05
4.3092833e-08
2.3923745e-08
1.4191548e-05
4.2369899e-08
2.3387146e-08
1.4142019e-05
4.1699301e-08
2.2889638e-08
1.4093249e-05
4.1141639e-08
2.245663e-08
1.4044951e-05
4.0844674e-08
2.2146571e-08
1.3996485e-05
4.1169228e-08
2.2123051e-08
1.3946229e-05
4.3012321e-08
2.2985406e-08
1.389015e-05
4.8540232e-08
2.5565798e-08
6.3281535e-08
5.0000838e-08
0.00010603565
2.7876425e-06
6.4750379e-06
0.00010074799
4.4145412e-06
6.5685292e-06
9.5493515e-05
4.8594028e-06
6.1741158e-06
9.0256432e-05
4.930369e-06
5.9581921e-06
8.5101366e-05
4.8311767e-06
5.6908012e-06
8.0102875e-05
4.5561761e-06
5.3445981e-06
7.5322251e-05
4.1469521e-06
4.9614853e-06
7.0803266e-05
3.6678925e-06
4.5689837e-06
6.6576264e-05
3.1701903e-06
4.1811255e-06
6.2660725e-05
2.6900109e-06
3.8075976e-06
5.9065443e-05
2.2519319e-06
3.4554566e-06
5.5788936e-05
1.8697304e-06
3.1287958e-06
5.2820978e-05
1.5477473e-06
2.8291458e-06
5.014479e-05
1.2836302e-06
2.5563139e-06
4.7739304e-05
1.07123e-06
2.3091141e-06
4.5581183e-05
9.0281503e-07
2.0858661e-06
4.3646423e-05
7.7048779e-07
1.884709e-06
4.1911533e-05
6.6697369e-07
1.7037792e-06
4.0354306e-05
5.8598197e-07
1.541295e-06
3.8954268e-05
5.2230224e-07
1.3955849e-06
3.769288e-05
4.7175606e-07
1.265091e-06
3.6553576e-05
4.3107986e-07
1.1483634e-06
3.552169e-05
3.9778206e-07
1.0440533e-06
3.4584322e-05
3.6999881e-07
9.5090831e-07
3.3730181e-05
3.4635985e-07
8.6777017e-07
3.2949411e-05
3.2587762e-07
7.9356871e-07
3.223342e-05
3.0784047e-07
7.2733487e-07
3.1574711e-05
2.9172982e-07
6.6818104e-07
3.0966769e-05
2.7719263e-07
6.153013e-07
3.0403928e-05
2.6398102e-07
5.6797021e-07
2.9881258e-05
2.5190849e-07
5.2554316e-07
2.9394455e-05
2.4082712e-07
4.8745001e-07
2.8939761e-05
2.3062159e-07
4.5318328e-07
2.8513895e-05
2.212015e-07
4.2229386e-07
2.8113985e-05
2.1249191e-07
3.9438671e-07
2.7737518e-05
2.0442797e-07
3.6911488e-07
2.7382285e-05
1.9695194e-07
3.4617381e-07
2.7046344e-05
1.9001179e-07
3.2529682e-07
2.6727982e-05
1.835599e-07
3.0625046e-07
2.6425689e-05
1.7755273e-07
2.8883087e-07
2.6138123e-05
1.7195002e-07
2.7285984e-07
2.5864095e-05
1.6671515e-07
2.5818184e-07
2.5602546e-05
1.6181452e-07
2.4466092e-07
2.535253e-05
1.5721705e-07
2.3217765e-07
2.5113201e-05
1.528944e-07
2.2062725e-07
2.4883797e-05
1.4882093e-07
2.0991772e-07
2.4663634e-05
1.4497367e-07
1.9996813e-07
2.4452094e-05
1.4133181e-07
1.9070705e-07
2.4248615e-05
1.3787697e-07
1.8207154e-07
2.405269e-05
1.3459268e-07
1.7400569e-07
2.3863854e-05
1.3146463e-07
1.6645987e-07
2.3681684e-05
1.2848059e-07
1.5938927e-07
2.3505794e-05
1.2562919e-07
1.5275413e-07
2.3335829e-05
1.228987e-07
1.4651969e-07
2.3171462e-05
1.2027636e-07
1.4065457e-07
2.3012394e-05
1.1775475e-07
1.351302e-07
2.2858345e-05
1.1532974e-07
1.2992039e-07
2.2709057e-05
1.1299538e-07
1.2500174e-07
2.2564291e-05
1.1074518e-07
1.2035288e-07
2.2423824e-05
1.0857348e-07
1.1595458e-07
2.2287451e-05
1.0647551e-07
1.1178925e-07
2.2154978e-05
1.0444702e-07
1.0784082e-07
2.2026226e-05
1.0248421e-07
1.040946e-07
2.1901025e-05
1.0058352e-07
1.0053716e-07
2.1779218e-05
9.8741541e-08
9.7156106e-08
2.1660658e-05
9.6954882e-08
9.394029e-08
2.1545205e-05
9.5221242e-08
9.0879054e-08
2.1432729e-05
9.3538815e-08
8.7962806e-08
2.1323107e-05
9.1905328e-08
8.5182623e-08
2.1216222e-05
9.0318523e-08
8.2530188e-08
2.1111965e-05
8.8776394e-08
7.9997902e-08
2.1010233e-05
8.7277129e-08
7.7578645e-08
2.0910927e-05
8.5818961e-08
7.5265855e-08
2.0813956e-05
8.4400311e-08
7.3053445e-08
2.0719232e-05
8.3019709e-08
7.0935671e-08
2.0626671e-05
8.1675643e-08
6.8907216e-08
2.0536195e-05
8.0366802e-08
6.696317e-08
2.0447729e-05
7.9091969e-08
6.5098759e-08
2.0361203e-05
7.7849808e-08
6.330973e-08
2.0276548e-05
7.6639226e-08
6.1592053e-08
2.0193702e-05
7.5458969e-08
5.994173e-08
2.0112602e-05
7.4307962e-08
5.8355217e-08
2.0033193e-05
7.318494e-08
5.6829043e-08
1.9955419e-05
7.2088624e-08
5.5359959e-08
1.9879228e-05
7.1017644e-08
5.3944861e-08
1.9804572e-05
6.9970431e-08
5.2580723e-08
1.9731406e-05
6.8945274e-08
5.126481e-08
1.9659685e-05
6.7940123e-08
4.9994394e-08
1.9589371e-05
6.6953004e-08
4.8767071e-08
1.9520423e-05
6.5982333e-08
4.7580567e-08
1.9452807e-05
6.5028033e-08
4.6433098e-08
1.9386482e-05
6.4094101e-08
4.5323753e-08
1.9321404e-05
6.3194688e-08
4.4253113e-08
1.9257511e-05
6.2366358e-08
4.3225248e-08
1.9194705e-05
6.1695212e-08
4.2253143e-08
1.9132798e-05
6.1374116e-08
4.1377404e-08
1.9071394e-05
6.1822462e-08
4.0750659e-08
1.9009424e-05
6.3924742e-08
4.1057601e-08
1.8944661e-05
6.9304696e-08
4.3998873e-08
7.9170943e-08
7.4661563e-08
0.0001054937
1.9169871e-06
6.4880406e-06
0.00010005365
3.2729596e-06
6.5816334e-06
9.4926077e-05
3.8288995e-06
6.1580776e-06
8.9946373e-05
3.9838108e-06
5.9262629e-06
8.5163276e-05
3.9595077e-06
5.6547657e-06
8.0619137e-05
3.7899368e-06
5.3103784e-06
7.6329462e-05
3.5015547e-06
4.9350725e-06
7.230016e-05
3.1412013e-06
4.5559928e-06
6.8534206e-05
2.7514802e-06
4.1846641e-06
6.5032983e-05
2.3633493e-06
3.8278852e-06
6.1795789e-05
1.9984143e-06
3.490711e-06
5.8818843e-05
1.670376e-06
3.176301e-06
5.6094718e-05
1.3858295e-06
2.886043e-06
5.3612488e-05
1.1457945e-06
2.6200649e-06
5.1358373e-05
9.4764114e-07
2.3777043e-06
4.9316593e-05
7.8676783e-07
2.1578272e-06
4.7470246e-05
6.5779545e-07
1.9590391e-06
4.5802069e-05
5.5532542e-07
1.7798252e-06
4.4295042e-05
4.7437114e-07
1.6186378e-06
4.293283e-05
4.1056669e-07
1.473948e-06
4.1700078e-05
3.6023238e-07
1.3442759e-06
4.0582591e-05
3.2035743e-07
1.2282094e-06
3.956742e-05
2.8853734e-07
1.1244154e-06
3.8642881e-05
2.6289068e-07
1.0316467e-06
3.7798527e-05
2.4196986e-07
9.4874399e-07
3.7025076e-05
2.2467705e-07
8.746517e-07
3.6314324e-05
2.10189e-07
8.0840413e-07
3.5659057e-05
1.9788607e-07
7.4911043e-07
3.5052961e-05
1.8731586e-07
6.9597283e-07
3.449052e-05
1.7814873e-07
6.4827381e-07
3.3966922e-05
1.7013169e-07
6.0537437e-07
3.3477973e-05
1.6306729e-07
5.6670867e-07
3.3020016e-05
1.5680297e-07
5.3177543e-07
3.2589865e-05
1.5122056e-07
5.0013241e-07
3.218474e-05
1.4622563e-07
4.7139137e-07
3.1802215e-05
1.4174077e-07
4.4521229e-07
3.1440168e-05
1.3770096e-07
4.2129808e-07
3.1096739e-05
1.3405096e-07
3.9938923e-07
3.0770297e-05
1.3074296e-07
3.7925956e-07
3.0459402e-05
1.2773516e-07
3.6071197e-07
3.0162787e-05
1.2499093e-07
3.4357479e-07
2.9879325e-05
1.2247783e-07
3.2769848e-07
2.960802e-05
1.2016733e-07
3.1295271e-07
2.934798e-05
1.180338e-07
2.9922352e-07
2.9098408e-05
1.1605462e-07
2.8641135e-07
2.885859e-05
1.1420981e-07
2.7442902e-07
2.8627882e-05
1.1248191e-07
2.6319998e-07
2.8405701e-05
1.1085559e-07
2.5265681e-07
2.819152e-05
1.0931756e-07
2.427402e-07
2.7984859e-05
1.078565e-07
2.3339752e-07
2.7785279e-05
1.064628e-07
2.2458211e-07
2.7592378e-05
1.0512871e-07
2.1625217e-07
2.740579e-05
1.0384737e-07
2.0837038e-07
2.7225174e-05
1.0261117e-07
2.0090362e-07
2.705022e-05
1.0140748e-07
1.9382258e-07
2.6880641e-05
1.0023383e-07
1.8710041e-07
2.6716166e-05
9.909237e-08
1.8071222e-07
2.6556546e-05
9.7979998e-08
1.7463558e-07
2.6401548e-05
9.6892526e-08
1.6885015e-07
2.6250957e-05
9.5827082e-08
1.6333744e-07
2.610457e-05
9.4781725e-08
1.5808044e-07
2.5962199e-05
9.3754744e-08
1.5306363e-07
2.5823666e-05
9.2744897e-08
1.4827261e-07
2.5688804e-05
9.1751019e-08
1.4369413e-07
2.5557458e-05
9.0771775e-08
1.3931598e-07
2.5429481e-05
8.980519e-08
1.351269e-07
2.5304734e-05
8.8851461e-08
1.3111646e-07
2.5183087e-05
8.7911206e-08
1.272747e-07
2.5064416e-05
8.6983923e-08
1.235924e-07
2.4948604e-05
8.6068949e-08
1.2006119e-07
2.4835542e-05
8.5165788e-08
1.1667304e-07
2.4725124e-05
8.4274296e-08
1.1342046e-07
2.4617252e-05
8.3394274e-08
1.1029655e-07
2.4511832e-05
8.2525487e-08
1.072948e-07
2.4408775e-05
8.166778e-08
1.0440899e-07
2.4307997e-05
8.0821022e-08
1.0163342e-07
2.4209416e-05
7.9985028e-08
9.8962667e-08
2.4112956e-05
7.9159736e-08
9.6391541e-08
2.4018546e-05
7.834501e-08
9.3915273e-08
2.3926115e-05
7.7540684e-08
9.152928e-08
2.3835598e-05
7.674654e-08
8.9229276e-08
2.3746933e-05
7.5962315e-08
8.7011033e-08
2.366006e-05
7.5187647e-08
8.4870728e-08
2.3574922e-05
7.4421989e-08
8.2804551e-08
2.3491466e-05
7.3664653e-08
8.0808923e-08
2.3409641e-05
7.2914668e-08
7.8880358e-08
2.33294e-05
7.2170697e-08
7.7015527e-08
2.3250698e-05
7.1431353e-08
7.5211033e-08
2.3173493e-05
7.0694893e-08
7.3463646e-08
2.3097745e-05
6.996021e-08
7.1770109e-08
2.3023418e-05
6.922797e-08
7.0127036e-08
2.2950477e-05
6.8503506e-08
6.8531207e-08
2.2878889e-05
6.7802894e-08
6.697973e-08
2.2808619e-05
6.7165066e-08
6.5471568e-08
2.2739625e-05
6.6675248e-08
6.4013368e-08
2.267185e-05
6.6507069e-08
6.2642311e-08
2.2605149e-05
6.6990752e-08
6.1532345e-08
2.2538888e-05
6.8686052e-08
6.1499908e-08
2.2471121e-05
7.2226987e-08
6.484515e-08
7.6722834e-08
9.8461322e-08
0.0001051979
1.3340884e-06
6.4961221e-06
9.9496561e-05
2.3731022e-06
6.6011947e-06
9.4262459e-05
2.9019224e-06
6.1610799e-06
8.9251186e-05
3.0856641e-06
5.9094196e-06
8.4493497e-05
3.0947347e-06
5.6224614e-06
8.0033635e-05
2.9846657e-06
5.265134e-06
7.5876907e-05
2.7790155e-06
4.8792667e-06
7.2014635e-05
2.5106844e-06
4.4927895e-06
6.8436293e-05
2.2128728e-06
4.116949e-06
6.5131387e-05
1.9107259e-06
3.7575292e-06
6.208941e-05
1.621732e-06
3.4186596e-06
5.9299432e-05
1.3573877e-06
3.1029661e-06
5.6749589e-05
1.1240344e-06
2.8116386e-06
5.4426788e-05
9.2377946e-07
2.5448158e-06
5.2316754e-05
7.5572799e-07
2.3019466e-06
5.0404313e-05
6.1717853e-07
2.0820302e-06
4.8673788e-05
5.0454348e-07
1.8837772e-06
4.7109414e-05
4.1397177e-07
1.7057274e-06
4.5695713e-05
3.4173652e-07
1.5463363e-06
4.4417792e-05
2.8445145e-07
1.4040359e-06
4.3261575e-05
2.3917113e-07
1.277278e-06
4.2213952e-05
2.0341502e-07
1.1645652e-06
4.1262871e-05
1.7514742e-07
1.0644719e-06
4.039737e-05
1.5273232e-07
9.75659e-07
3.9607583e-05
1.3487529e-07
8.9688146e-07
3.8884688e-05
1.2055568e-07
8.2701636e-07
3.8220848e-05
1.0901091e-07
7.6501853e-07
3.7609155e-05
9.9633843e-08
7.0994489e-07
3.7043542e-05
9.1977443e-08
6.609509e-07
3.6518702e-05
8.5705844e-08
6.1728288e-07
3.6030009e-05
8.0552381e-08
5.7827307e-07
3.5573433e-05
7.6308261e-08
5.4333413e-07
3.5145475e-05
7.2811257e-08
5.1195029e-07
3.4743091e-05
6.9934128e-08
4.8367023e-07
3.4363641e-05
6.7575445e-08
4.5810066e-07
3.4004828e-05
6.5652874e-08
4.3489996e-07
3.3664659e-05
6.4098586e-08
4.1377211e-07
3.3341393e-05
6.2855916e-08
3.9446094e-07
3.3033513e-05
6.1877026e-08
3.7674529e-07
3.2739693e-05
6.1121107e-08
3.6043423e-07
3.2458768e-05
6.0553056e-08
3.4536331e-07
3.2189712e-05
6.0142656e-08
3.3139055e-07
3.1931622e-05
5.9863658e-08
3.1839376e-07
3.1683696e-05
5.9693166e-08
3.0626735e-07
3.1445219e-05
5.9611193e-08
2.9492013e-07
3.1215555e-05
5.9600609e-08
2.8427316e-07
3.0994132e-05
5.9646495e-08
2.7425805e-07
3.0780436e-05
5.9736184e-08
2.6481539e-07
3.0574002e-05
5.9858689e-08
2.5589333e-07
3.0374407e-05
6.0004917e-08
2.4744659e-07
3.0181267e-05
6.016764e-08
2.3943547e-07
2.9994229e-05
6.0341258e-08
2.3182489e-07
2.9812971e-05
6.0521811e-08
2.2458373e-07
2.9637193e-05
6.0704498e-08
2.1768454e-07
2.9466629e-05
6.0867255e-08
2.1110456e-07
2.9301024e-05
6.1016971e-08
2.0482179e-07
2.914014e-05
6.1160867e-08
1.9881567e-07
2.8983756e-05
6.1294949e-08
1.9306838e-07
2.8831669e-05
6.1415479e-08
1.8756388e-07
2.8683688e-05
6.1520984e-08
1.8228765e-07
2.8539633e-05
6.1610581e-08
1.7722635e-07
2.8399336e-05
6.1683802e-08
1.7236783e-07
2.8262639e-05
6.1740504e-08
1.677009e-07
2.8129394e-05
6.1780707e-08
1.6321521e-07
2.7999461e-05
6.1803911e-08
1.5890121e-07
2.7872709e-05
6.1807382e-08
1.5475037e-07
2.7749012e-05
6.1793575e-08
1.5075442e-07
2.7628253e-05
6.1764838e-08
1.4690559e-07
2.7510319e-05
6.1720986e-08
1.431966e-07
2.7395105e-05
6.1662094e-08
1.3962084e-07
2.728251e-05
6.1588629e-08
1.3617202e-07
2.7172439e-05
6.1501069e-08
1.3284423e-07
2.7064802e-05
6.1399979e-08
1.2963192e-07
2.6959511e-05
6.128594e-08
1.265299e-07
2.6856486e-05
6.1159537e-08
1.2353325e-07
2.6755649e-05
6.1021316e-08
1.2063731e-07
2.6656924e-05
6.0871844e-08
1.1783767e-07
2.6560242e-05
6.0711681e-08
1.1513015e-07
2.6465535e-05
6.0541373e-08
1.1251075e-07
2.6372738e-05
6.0361339e-08
1.0997577e-07
2.6281791e-05
6.0171948e-08
1.075216e-07
2.6192636e-05
5.9973535e-08
1.051447e-07
2.6105215e-05
5.9766321e-08
1.0284181e-07
2.6019477e-05
5.955026e-08
1.0060974e-07
2.5935371e-05
5.9325144e-08
9.8445291e-08
2.585285e-05
5.9090498e-08
9.6345394e-08
2.5771868e-05
5.8845505e-08
9.4306949e-08
2.5692384e-05
5.8589029e-08
9.2326739e-08
2.5614357e-05
5.8319835e-08
9.0401452e-08
2.5537753e-05
5.8037086e-08
8.8527356e-08
2.5462539e-05
5.7741599e-08
8.6700208e-08
2.5388689e-05
5.7438407e-08
8.4915184e-08
2.5316184e-05
5.714143e-08
8.3166628e-08
2.5245017e-05
5.6882566e-08
8.1449654e-08
2.51752e-05
5.672605e-08
7.9765816e-08
2.510677e-05
5.6787934e-08
7.8149168e-08
2.5039729e-05
5.7251609e-08
7.6780968e-08
2.4973573e-05
5.8330961e-08
7.6510231e-08
2.4906079e-05
5.9989488e-08
7.9732183e-08
6.0715008e-08
1.128782e-07
0.00010503672
9.0789369e-07
6.5005614e-06
9.9140653e-05
1.6524914e-06
6.6166802e-06
9.3788329e-05
2.0825242e-06
6.1717217e-06
8.8708526e-05
2.2549373e-06
5.91053e-06
8.3909682e-05
2.2784039e-06
5.6151748e-06
7.9437109e-05
2.2074821e-06
5.2497564e-06
7.5296201e-05
2.0645348e-06
4.8553893e-06
7.1474034e-05
1.8722543e-06
4.4605969e-06
6.7955013e-05
1.6547667e-06
4.0771269e-06
6.4723621e-05
1.4313505e-06
3.7107669e-06
6.1764423e-05
1.2154298e-06
3.3655007e-06
5.9062056e-05
1.015864e-06
3.0438911e-06
5.6601108e-05
8.3782742e-07
2.7471548e-06
5.4365944e-05
6.8344646e-07
2.475497e-06
5.2340648e-05
5.5258526e-07
2.2284383e-06
5.0509125e-05
4.4366548e-07
2.0050361e-06
4.8855299e-05
3.5433454e-07
1.8040351e-06
4.7363353e-05
2.819359e-07
1.6239821e-06
4.6017963e-05
2.2381348e-07
1.4633127e-06
4.4804503e-05
1.7749383e-07
1.3204181e-06
4.3709199e-05
1.4078088e-07
1.1936935e-06
4.2719248e-05
1.1179153e-07
1.081575e-06
4.1822875e-05
8.8954516e-08
9.8256583e-07
4.1009364e-05
7.0988005e-08
8.9525471e-07
4.0269054e-05
5.6861833e-08
8.1832379e-07
3.9593306e-05
4.5719126e-08
7.5058475e-07
3.8974405e-05
3.6977808e-08
6.9093436e-07
3.8405585e-05
3.0067341e-08
6.3838634e-07
3.7880869e-05
2.465083e-08
5.9204242e-07
3.7395029e-05
2.0439978e-08
5.5110605e-07
3.6943514e-05
1.7190296e-08
5.1487712e-07
3.6522366e-05
1.4716746e-08
4.8273956e-07
3.6128148e-05
1.2874772e-08
4.5415392e-07
3.5757883e-05
1.1549927e-08
4.2864945e-07
3.5408991e-05
1.0650751e-08
4.0581703e-07
3.5079238e-05
1.0103608e-08
3.8530229e-07
3.4766689e-05
9.8482676e-09
3.6679878e-07
3.4469668e-05
9.8351233e-09
3.5004233e-07
3.4186716e-05
1.002294e-08
3.3480553e-07
3.3916567e-05
1.037705e-08
3.2089285e-07
3.3658116e-05
1.0868084e-08
3.081366e-07
3.3410395e-05
1.147099e-08
2.9639284e-07
3.3172556e-05
1.2164255e-08
2.8553827e-07
3.2943853e-05
1.2929308e-08
2.7546718e-07
3.2723625e-05
1.3750176e-08
2.6608894e-07
3.2511286e-05
1.4613052e-08
2.5732573e-07
3.2306316e-05
1.5506227e-08
2.4911067e-07
3.2108246e-05
1.6419586e-08
2.4138622e-07
3.1916658e-05
1.7344633e-08
2.341027e-07
3.1731171e-05
1.827433e-08
2.2721712e-07
3.1551444e-05
1.9203166e-08
2.2069215e-07
3.1377162e-05
2.0127774e-08
2.144951e-07
3.1208038e-05
2.1048671e-08
2.085968e-07
3.10438e-05
2.1972784e-08
2.0297054e-07
3.0884232e-05
2.2827856e-08
1.9760738e-07
3.0729103e-05
2.3662972e-08
1.9248229e-07
3.05782e-05
2.4489993e-08
1.8757381e-07
3.0431331e-05
2.5296296e-08
1.8286764e-07
3.0288318e-05
2.6078014e-08
1.7835077e-07
3.0148994e-05
2.6834281e-08
1.7401105e-07
3.0013202e-05
2.756472e-08
1.6983754e-07
2.9880797e-05
2.8268995e-08
1.6582024e-07
2.975164e-05
2.8947441e-08
1.6195014e-07
2.9625601e-05
2.9600762e-08
1.5821897e-07
2.9502557e-05
3.0228559e-08
1.5461919e-07
2.9382396e-05
3.0823607e-08
1.5114464e-07
2.9265007e-05
3.1393144e-08
1.4778875e-07
2.9150287e-05
3.1939592e-08
1.4454537e-07
2.9038137e-05
3.2461896e-08
1.41409e-07
2.8928465e-05
3.2960084e-08
1.3837462e-07
2.8821181e-05
3.3434759e-08
1.3543751e-07
2.8716203e-05
3.3886393e-08
1.3259329e-07
2.8613449e-05
3.4315564e-08
1.2983787e-07
2.8512845e-05
3.4722897e-08
1.2716738e-07
2.8414317e-05
3.5108979e-08
1.2457813e-07
2.8317797e-05
3.5474431e-08
1.220668e-07
2.8223219e-05
3.5819889e-08
1.1963007e-07
2.813052e-05
3.6145936e-08
1.1726492e-07
2.803964e-05
3.6453088e-08
1.1496838e-07
2.7950522e-05
3.6741887e-08
1.1273773e-07
2.7863111e-05
3.7012812e-08
1.1057029e-07
2.7777354e-05
3.7266228e-08
1.0846343e-07
2.7693204e-05
3.7502458e-08
1.0641473e-07
2.761061e-05
3.772157e-08
1.0442175e-07
2.752953e-05
3.7923528e-08
1.0248203e-07
2.744992e-05
3.8107987e-08
1.0059307e-07
2.7371738e-05
3.8274292e-08
9.875229e-08
2.7294949e-05
3.8421537e-08
9.6956871e-08
2.7219516e-05
3.854873e-08
9.5203611e-08
2.714541e-05
3.8655132e-08
9.3488621e-08
2.7072603e-05
3.874111e-08
9.1806928e-08
2.7001079e-05
3.8810263e-08
9.0152321e-08
2.6930832e-05
3.8872141e-08
8.8516571e-08
2.6861877e-05
3.8947395e-08
8.6890527e-08
2.679426e-05
3.9073525e-08
8.5269189e-08
2.6728065e-05
3.9306959e-08
8.367594e-08
2.6663337e-05
3.9708357e-08
8.2271167e-08
2.659956e-05
4.0272034e-08
8.1836187e-08
2.6534295e-05
4.0698038e-08
8.4555742e-08
3.9620855e-08
1.150713e-07
0.00010494757
5.6811085e-07
6.5033077e-06
9.8925416e-05
1.0462983e-06
6.6283517e-06
9.3480449e-05
1.3439845e-06
6.1835065e-06
8.8341777e-05
1.4751324e-06
5.9184763e-06
8.3502084e-05
1.4993911e-06
5.6187065e-06
7.9004057e-05
1.4572411e-06
5.2482679e-06
7.4853978e-05
1.3667382e-06
4.8478757e-06
7.1037378e-05
1.2423973e-06
4.4464569e-06
6.7536063e-05
1.0997693e-06
4.0563127e-06
6.4331998e-05
9.519236e-07
3.683491e-06
6.1407318e-05
8.0805755e-07
3.3320524e-06
5.8744339e-05
6.7422203e-07
3.0046209e-06
5.6325632e-05
5.5404398e-07
2.7024907e-06
5.4133973e-05
4.4916747e-07
2.4259383e-06
5.2152298e-05
3.5972402e-07
2.174536e-06
5.0363747e-05
2.8484511e-07
1.9473718e-06
4.875178e-05
2.231e-07
1.7432015e-06
4.7300339e-05
1.7281162e-07
1.5605647e-06
4.5994012e-05
1.3226568e-07
1.3978748e-06
4.4818177e-05
9.9840032e-08
1.2534891e-06
4.3759121e-05
7.4075606e-08
1.1257614e-06
4.2804123e-05
5.3707611e-08
1.0130814e-06
4.1941503e-05
3.7671225e-08
9.1390375e-07
4.1160627e-05
2.509647e-08
8.267673e-07
4.0451891e-05
1.5294199e-08
7.5030386e-07
3.980679e-05
7.5281843e-09
6.8329174e-07
3.9217543e-05
1.6727924e-09
6.2455203e-07
3.8677513e-05
-3.0330953e-09
5.7313084e-07
3.8180739e-05
-6.6486677e-09
5.2807354e-07
3.7722004e-05
-9.3595005e-09
4.885345e-07
3.7296777e-05
-1.1371806e-08
4.5378925e-07
3.6901113e-05
-1.2818229e-08
4.2319913e-07
3.6531588e-05
-1.3805294e-08
3.962048e-07
3.6185236e-05
-1.4417492e-08
3.7231877e-07
3.5859491e-05
-1.4721893e-08
3.5111778e-07
3.5552132e-05
-1.477262e-08
3.3223579e-07
3.5261237e-05
-1.4613901e-08
3.1535727e-07
3.4985143e-05
-1.4282127e-08
3.0021091e-07
3.472241e-05
-1.3807671e-08
2.8656373e-07
3.4471787e-05
-1.3215862e-08
2.7421629e-07
3.4232185e-05
-1.2528183e-08
2.6299769e-07
3.4002657e-05
-1.1762772e-08
2.5276173e-07
3.3782373e-05
-1.0935213e-08
2.4338337e-07
3.3570606e-05
-1.0058782e-08
2.3475556e-07
3.3366714e-05
-9.144738e-09
2.2678672e-07
3.3170132e-05
-8.2028133e-09
2.1939831e-07
3.2980356e-05
-7.241212e-09
2.1252301e-07
3.279694e-05
-6.2668832e-09
2.0610282e-07
3.2619482e-05
-5.2855437e-09
2.0008783e-07
3.2447623e-05
-4.3018224e-09
1.9443478e-07
3.228104e-05
-3.3190355e-09
1.8910587e-07
3.2119438e-05
-2.3383068e-09
1.8406733e-07
3.1962554e-05
-1.3530312e-09
1.792865e-07
3.1810075e-05
-2.7631958e-10
1.7472767e-07
3.1661878e-05
5.858755e-10
1.7043908e-07
3.1517733e-05
1.4356207e-09
1.6637294e-07
3.1377429e-05
2.3038557e-09
1.624896e-07
3.1240792e-05
3.1586763e-09
1.5877486e-07
3.1107656e-05
3.996979e-09
1.5521715e-07
3.0977867e-05
4.8171904e-09
1.5180546e-07
3.0851284e-05
5.6179885e-09
1.4852967e-07
3.0727774e-05
6.3990617e-09
1.4538076e-07
3.0607209e-05
7.160946e-09
1.4235053e-07
3.0489473e-05
7.905942e-09
1.3943122e-07
3.037445e-05
8.6357554e-09
1.3661578e-07
3.0262049e-05
9.3206686e-09
1.3390394e-07
3.0152163e-05
9.9938174e-09
1.3128566e-07
3.0044697e-05
1.0650389e-08
1.2875513e-07
2.9939564e-05
1.128673e-08
1.2630829e-07
2.983668e-05
1.1903207e-08
1.2394086e-07
2.9735965e-05
1.250017e-08
1.2164884e-07
2.9637345e-05
1.3077902e-08
1.1942843e-07
2.9540748e-05
1.3636707e-08
1.1727616e-07
2.9446105e-05
1.4177055e-08
1.1518882e-07
2.9353352e-05
1.4699165e-08
1.1316338e-07
2.9262425e-05
1.5203515e-08
1.1119702e-07
2.9173268e-05
1.5690477e-08
1.0928707e-07
2.9085822e-05
1.6160376e-08
1.0743106e-07
2.9000035e-05
1.6613587e-08
1.0562662e-07
2.8915855e-05
1.7050407e-08
1.0387154e-07
2.8833233e-05
1.7471099e-08
1.0216363e-07
2.8752123e-05
1.7875971e-08
1.0050081e-07
2.8672479e-05
1.8265098e-08
9.88811e-08
2.8594259e-05
1.8638558e-08
9.7302498e-08
2.8517424e-05
1.8996216e-08
9.5762976e-08
2.8441934e-05
1.9337791e-08
9.4260368e-08
2.8367753e-05
1.9662766e-08
9.2792347e-08
2.8294848e-05
1.9970487e-08
9.1356226e-08
2.8223187e-05
2.0259989e-08
8.9948833e-08
2.8152746e-05
2.0530705e-08
8.8565891e-08
2.8083503e-05
2.0782604e-08
8.7201795e-08
2.8015447e-05
2.1017537e-08
8.5848695e-08
2.7948582e-05
2.1240728e-08
8.4495835e-08
2.7882937e-05
2.1462742e-08
8.31295e-08
2.7818574e-05
2.1699987e-08
8.1736514e-08
2.7755588e-05
2.1969279e-08
8.0324348e-08
2.7694014e-05
2.2266187e-08
7.9016087e-08
2.7633299e-05
2.2506306e-08
7.8480651e-08
2.7571004e-05
2.2393418e-08
8.0599489e-08
2.0993098e-08
1.0779943e-07
0.00010489986
2.744338e-07
6.5049155e-06
9.8802772e-05
5.0716636e-07
6.6362236e-06
9.329591e-05
6.5854979e-07
6.1922972e-06
8.8116302e-05
7.2902548e-07
5.9257148e-06
8.3248198e-05
7.4378816e-07