/*--------------------------------*- C++ -*----------------------------------*\
  =========                 |
  \\      /  F ield         | OpenFOAM: The Open Source CFD Toolbox
   \\    /   O peration     | Website:  https://openfoam.org
    \\  /    A nd           | Version:  7
     \\/     M anipulation  |
\*---------------------------------------------------------------------------*/
FoamFile
{
    version     2.0;
    format      ascii;
    class       surfaceScalarField;
    location    "2600/water";
    object      phi;
}
// * * * * * * * * * * * * * * * * * * * * * * * * * * * * * * * * * * * * * //

dimensions      [1 0 -1 0 0 0 0];

internalField   nonuniform List<scalar> 
156660
(
9.905724e-05
6.0010402e-06
6.0528092e-06
8.6847498e-05
6.0555113e-06
6.1542307e-06
7.5687891e-05
5.5111363e-06
5.6484701e-06
6.5441704e-05
5.0404181e-06
5.2057689e-06
5.6267661e-05
4.4956436e-06
4.6783991e-06
4.8318019e-05
3.8797648e-06
4.0698777e-06
4.1624776e-05
3.2524448e-06
3.4407982e-06
3.6124897e-05
2.660462e-06
2.839417e-06
3.1692235e-05
2.1345127e-06
2.2981489e-06
2.8162841e-05
1.6926975e-06
1.8366964e-06
2.5361437e-05
1.3399933e-06
1.4614113e-06
2.3124664e-05
1.0698477e-06
1.1669256e-06
2.1315127e-05
8.6875421e-07
9.4078226e-07
1.9825714e-05
7.2110067e-07
7.6831274e-07
1.8577278e-05
6.1248243e-07
6.3595307e-07
1.7513255e-05
5.312522e-07
5.3277149e-07
1.6593744e-05
4.6879725e-07
4.5071348e-07
1.5790433e-05
4.1913721e-07
3.8417387e-07
1.5082784e-05
3.782907e-07
3.2935848e-07
1.4455417e-05
3.4367127e-07
2.8369563e-07
1.3896409e-05
3.1361407e-07
2.4539333e-07
1.339622e-05
2.870445e-07
2.1314454e-07
1.2947015e-05
2.6326032e-07
1.8594512e-07
1.2542237e-05
2.4179365e-07
1.6298461e-07
1.2176318e-05
2.2232206e-07
1.4359689e-07
1.1844484e-05
2.046148e-07
1.2721879e-07
1.1542609e-05
1.8849497e-07
1.1337975e-07
1.1267116e-05
1.7381574e-07
1.0167793e-07
1.1014892e-05
1.6046271e-07
9.1760823e-08
1.0783252e-05
1.4833966e-07
8.3300579e-08
1.0569851e-05
1.3734905e-07
7.6052135e-08
1.0372614e-05
1.2738863e-07
6.984833e-08
1.0189731e-05
1.1836808e-07
6.4514815e-08
1.001963e-05
1.1020448e-07
5.9896591e-08
9.8609388e-06
1.0281924e-07
5.5871651e-08
9.7124594e-06
9.6137957e-08
5.2341361e-08
9.5731439e-06
9.0091183e-08
4.9224383e-08
9.4420759e-06
8.4614458e-08
4.6453596e-08
9.3184531e-06
7.9648662e-08
4.3974129e-08
9.2015723e-06
7.5139712e-08
4.174111e-08
9.0908166e-06
7.1038147e-08
3.9717562e-08
8.9856431e-06
6.7301123e-08
3.787231e-08
8.8855707e-06
6.3894271e-08
3.6178161e-08
8.7901757e-06
6.078011e-08
3.4614935e-08
8.6990829e-06
5.792615e-08
3.3166641e-08
8.611959e-06
5.530372e-08
3.1820148e-08
8.5285072e-06
5.2887433e-08
3.056441e-08
8.4484618e-06
5.0655062e-08
2.9390261e-08
8.3715848e-06
4.8587027e-08
2.8290023e-08
8.2976614e-06
4.6666197e-08
2.7257221e-08
8.2264975e-06
4.4877462e-08
2.6286423e-08
8.1579202e-06
4.3208748e-08
2.5368521e-08
8.0917731e-06
4.1649035e-08
2.4498034e-08
8.0279108e-06
4.0186978e-08
2.3675355e-08
7.9662005e-06
3.8812656e-08
2.2897527e-08
7.9065219e-06
3.7518403e-08
2.2160237e-08
7.8487639e-06
3.6297853e-08
2.1460155e-08
7.7928241e-06
3.5145129e-08
2.0794579e-08
7.7386083e-06
3.4054672e-08
2.0161167e-08
7.6860293e-06
3.3021367e-08
1.9557689e-08
7.6350062e-06
3.20408e-08
1.8982258e-08
7.5854641e-06
3.1109059e-08
1.8433071e-08
7.537333e-06
3.0222609e-08
1.7908512e-08
7.4905478e-06
2.937824e-08
1.7407016e-08
7.4450476e-06
2.8573012e-08
1.6927207e-08
7.4007755e-06
2.7804225e-08
1.6467798e-08
7.3576783e-06
2.7069593e-08
1.6027684e-08
7.3157056e-06
2.6367053e-08
1.5605605e-08
7.2748103e-06
2.5694628e-08
1.5200699e-08
7.2349479e-06
2.5050562e-08
1.4811854e-08
7.1960766e-06
2.4433066e-08
1.443818e-08
7.158157e-06
2.3840677e-08
1.4078917e-08
7.1211518e-06
2.3271902e-08
1.3733265e-08
7.0850258e-06
2.2725529e-08
1.3400532e-08
7.0497456e-06
2.2200202e-08
1.3079945e-08
7.0152798e-06
2.169493e-08
1.2770901e-08
6.9815985e-06
2.1208599e-08
1.2472768e-08
6.9486733e-06
2.0740236e-08
1.2184939e-08
6.9164775e-06
2.0288968e-08
1.1906771e-08
6.8849857e-06
1.9853944e-08
1.1637809e-08
6.8541739e-06
1.9434382e-08
1.1377459e-08
6.8240193e-06
1.9029441e-08
1.1125126e-08
6.7945006e-06
1.863849e-08
1.0880232e-08
6.7655975e-06
1.8260757e-08
1.0642304e-08
6.7372912e-06
1.7895548e-08
1.0410784e-08
6.7095641e-06
1.7542074e-08
1.0185108e-08
6.6823996e-06
1.7199614e-08
9.9648828e-09
6.6557825e-06
1.6867289e-08
9.7498525e-09
6.6296983e-06
1.6544135e-08
9.5399875e-09
6.6041331e-06
1.6229264e-08
9.3360046e-09
6.5790714e-06
1.5921991e-08
9.1396869e-09
6.554494e-06
1.5622331e-08
8.9550755e-09
6.5303708e-06
1.5332563e-08
8.7906764e-09
6.5066467e-06
1.5060471e-08
8.6635748e-09
6.4832094e-06
1.482781e-08
8.6095028e-09
6.4598103e-06
1.4693048e-08
8.7059859e-09
6.4358387e-06
1.4826396e-08
9.1451357e-09
6.4096302e-06
1.574173e-08
1.0466763e-08
6.3782855e-06
1.8026559e-08
1.3318222e-08
3.2300224e-08
2.7923583e-08
0.00010646494
4.1872385e-06
6.4599816e-06
0.0001002019
5.695418e-06
6.6231353e-06
9.3659588e-05
5.7790389e-06
6.2744098e-06
8.7011589e-05
5.6514782e-06
6.0369386e-06
8.0422927e-05
5.3669119e-06
5.7173941e-06
7.4094022e-05
4.9022832e-06
5.3063862e-06
6.8167026e-05
4.3278135e-06
4.8516273e-06
6.2722565e-05
3.717891e-06
4.387032e-06
5.7799049e-05
3.1243144e-06
3.9337144e-06
5.3403345e-05
2.5820689e-06
3.5063329e-06
4.9517402e-05
2.1121062e-06
3.1138299e-06
4.6105482e-05
1.7220197e-06
2.7597473e-06
4.3121558e-05
1.4089355e-06
2.4437429e-06
4.0515558e-05
1.1637552e-06
2.163346e-06
3.8237948e-05
9.7485852e-07
1.9152336e-06
3.6242683e-05
8.3055975e-07
1.6959573e-06
3.4488759e-05
7.20437e-07
1.5022849e-06
3.2940716e-05
6.3586296e-07
1.3313172e-06
3.1568463e-05
5.7005005e-07
1.1804931e-06
3.0346733e-05
5.1784899e-07
1.0475522e-06
2.9254398e-05
4.7545956e-07
9.3049031e-07
2.8273782e-05
4.4013958e-07
8.2752024e-07
2.7390054e-05
4.0994894e-07
7.3704011e-07
2.6590699e-05
3.8353952e-07
6.5760857e-07
2.5865102e-05
3.5998886e-07
5.8793071e-07
2.5204197e-05
3.386763e-07
5.2684261e-07
2.4600205e-05
3.191836e-07
4.733035e-07
2.4046429e-05
3.0120193e-07
4.2639019e-07
2.3537072e-05
2.8455207e-07
3.8526713e-07
2.3067119e-05
2.6911101e-07
3.491824e-07
2.2632208e-05
2.5478166e-07
3.1747789e-07
2.2228528e-05
2.4147385e-07
2.8959534e-07
2.1852744e-05
2.2911074e-07
2.6504124e-07
2.1501947e-05
2.1762893e-07
2.4337256e-07
2.1173591e-05
2.0696952e-07
2.2420572e-07
2.0865444e-05
1.9707565e-07
2.0720866e-07
2.0575549e-05
1.8789254e-07
1.9209402e-07
2.0302183e-05
1.7936722e-07
1.7861344e-07
2.0043829e-05
1.714491e-07
1.6655321e-07
1.979915e-05
1.6408983e-07
1.5572946e-07
1.956696e-05
1.5724381e-07
1.4598404e-07
1.934621e-05
1.5086895e-07
1.3718219e-07
1.9135969e-05
1.4492653e-07
1.2920879e-07
1.8935407e-05
1.3937906e-07
1.2196308e-07
1.8743783e-05
1.3419229e-07
1.1535764e-07
1.8560435e-05
1.2933509e-07
1.0931728e-07
1.8384766e-05
1.247791e-07
1.0377716e-07
1.8216241e-05
1.2049852e-07
9.8681274e-08
1.8054377e-05
1.1647011e-07
9.3981332e-08
1.7898734e-05
1.1267289e-07
8.963542e-08
1.7748917e-05
1.0908819e-07
8.5607009e-08
1.7604563e-05
1.0570001e-07
8.1862412e-08
1.7465345e-05
1.0249337e-07
7.837326e-08
1.7330962e-05
9.9452998e-08
7.5116982e-08
1.7201138e-05
9.656439e-08
7.2072716e-08
1.7075619e-05
9.3816642e-08
6.9221159e-08
1.695417e-05
9.1201096e-08
6.654513e-08
1.6836577e-05
8.8709105e-08
6.4029543e-08
1.6722638e-05
8.6331945e-08
6.1661048e-08
1.661217e-05
8.4061713e-08
5.9427713e-08
1.6505001e-05
8.1891485e-08
5.731881e-08
1.640097e-05
7.9814915e-08
5.5324839e-08
1.6299929e-05
7.7826136e-08
5.343713e-08
1.620174e-05
7.5919842e-08
5.1647935e-08
1.6106272e-05
7.4091028e-08
4.9950133e-08
1.6013404e-05
7.2334984e-08
4.8337389e-08
1.5923022e-05
7.0647711e-08
4.6803854e-08
1.5835019e-05
6.9025724e-08
4.5344277e-08
1.5749294e-05
6.7465546e-08
4.3953707e-08
1.5665753e-05
6.5963773e-08
4.262768e-08
1.5584307e-05
6.4517353e-08
4.136219e-08
1.5504871e-05
6.3123432e-08
4.0153357e-08
1.5427365e-05
6.177929e-08
3.899778e-08
1.5351716e-05
6.048252e-08
3.7892288e-08
1.5277852e-05
5.9230825e-08
3.6833876e-08
1.5205705e-05
5.8022e-08
3.5819706e-08
1.5135212e-05
5.6854015e-08
3.4847398e-08
1.5066313e-05
5.5724989e-08
3.3914355e-08
1.499895e-05
5.4633134e-08
3.3018399e-08
1.493307e-05
5.3576731e-08
3.2157406e-08
1.4868621e-05
5.2554165e-08
3.1329403e-08
1.4805554e-05
5.156394e-08
3.0532462e-08
1.4743823e-05
5.0604483e-08
2.9764667e-08
1.4683386e-05
4.967428e-08
2.9024404e-08
1.4624199e-05
4.8771821e-08
2.8309868e-08
1.4566226e-05
4.7895442e-08
2.761958e-08
1.4509431e-05
4.7043479e-08
2.6951979e-08
1.4453778e-05
4.6214101e-08
2.6305771e-08
1.4399237e-05
4.5405396e-08
2.5679884e-08
1.4345777e-05
4.4615706e-08
2.5073722e-08
1.4293367e-05
4.3844262e-08
2.4487692e-08
1.4241972e-05
4.3092891e-08
2.3923754e-08
1.4191548e-05
4.236992e-08
2.3387163e-08
1.4142019e-05
4.169933e-08
2.2889611e-08
1.4093249e-05
4.114166e-08
2.2456583e-08
1.4044951e-05
4.0844653e-08
2.2146563e-08
1.3996485e-05
4.1169177e-08
2.2123043e-08
1.3946229e-05
4.3012268e-08
2.2985396e-08
1.389015e-05
4.8540252e-08
2.5565801e-08
6.3281538e-08
5.0000848e-08
0.00010603565
2.7876425e-06
6.4750379e-06
0.00010074799
4.4145413e-06
6.5685292e-06
9.5493515e-05
4.8594028e-06
6.1741158e-06
9.0256432e-05
4.930369e-06
5.9581921e-06
8.5101366e-05
4.8311767e-06
5.6908012e-06
8.0102875e-05
4.5561761e-06
5.3445981e-06
7.5322251e-05
4.1469521e-06
4.9614853e-06
7.0803266e-05
3.6678925e-06
4.5689837e-06
6.6576264e-05
3.1701903e-06
4.1811255e-06
6.2660725e-05
2.6900109e-06
3.8075976e-06
5.9065443e-05
2.2519319e-06
3.4554566e-06
5.5788936e-05
1.8697304e-06
3.1287957e-06
5.2820978e-05
1.5477473e-06
2.8291458e-06
5.014479e-05
1.2836302e-06
2.5563139e-06
4.7739304e-05
1.07123e-06
2.309114e-06
4.5581183e-05
9.0281507e-07
2.085866e-06
4.3646423e-05
7.7048778e-07
1.884709e-06
4.1911533e-05
6.6697373e-07
1.7037793e-06
4.0354306e-05
5.8598199e-07
1.541295e-06
3.8954268e-05
5.2230225e-07
1.3955849e-06
3.769288e-05
4.7175605e-07
1.265091e-06
3.6553576e-05
4.3107986e-07
1.1483634e-06
3.552169e-05
3.9778208e-07
1.0440533e-06
3.4584322e-05
3.6999885e-07
9.5090831e-07
3.3730181e-05
3.4635983e-07
8.6777018e-07
3.2949411e-05
3.2587757e-07
7.9356874e-07
3.2233419e-05
3.0784046e-07
7.2733487e-07
3.157471e-05
2.9172981e-07
6.6818105e-07
3.0966769e-05
2.7719263e-07
6.1530127e-07
3.0403928e-05
2.6398098e-07
5.6797022e-07
2.9881258e-05
2.5190846e-07
5.2554313e-07
2.9394455e-05
2.408271e-07
4.8745001e-07
2.8939761e-05
2.3062159e-07
4.5318326e-07
2.8513895e-05
2.2120154e-07
4.2229386e-07
2.8113985e-05
2.1249194e-07
3.9438673e-07
2.7737518e-05
2.0442795e-07
3.6911491e-07
2.7382285e-05
1.9695195e-07
3.4617385e-07
2.7046344e-05
1.9001179e-07
3.2529682e-07
2.6727982e-05
1.8355996e-07
3.0625046e-07
2.6425689e-05
1.7755275e-07
2.8883086e-07
2.6138123e-05
1.7195006e-07
2.7285986e-07
2.5864094e-05
1.6671517e-07
2.5818186e-07
2.5602546e-05
1.6181452e-07
2.446609e-07
2.535253e-05
1.572171e-07
2.3217764e-07
2.51132e-05
1.5289443e-07
2.2062727e-07
2.4883797e-05
1.4882098e-07
2.0991773e-07
2.4663634e-05
1.4497366e-07
1.9996811e-07
2.4452094e-05
1.4133182e-07
1.9070706e-07
2.4248615e-05
1.3787695e-07
1.8207156e-07
2.405269e-05
1.3459267e-07
1.7400569e-07
2.3863854e-05
1.3146462e-07
1.6645991e-07
2.3681684e-05
1.2848058e-07
1.5938926e-07
2.3505794e-05
1.2562919e-07
1.5275413e-07
2.3335829e-05
1.2289868e-07
1.465197e-07
2.3171462e-05
1.2027633e-07
1.4065462e-07
2.3012394e-05
1.1775473e-07
1.351302e-07
2.2858345e-05
1.1532969e-07
1.2992042e-07
2.2709057e-05
1.1299536e-07
1.2500174e-07
2.2564291e-05
1.1074516e-07
1.2035291e-07
2.2423824e-05
1.0857345e-07
1.1595459e-07
2.2287451e-05
1.0647549e-07
1.1178923e-07
2.2154978e-05
1.0444701e-07
1.0784081e-07
2.2026226e-05
1.0248419e-07
1.040946e-07
2.1901025e-05
1.0058352e-07
1.0053716e-07
2.1779218e-05
9.8741544e-08
9.7156167e-08
2.1660658e-05
9.6954898e-08
9.3940269e-08
2.1545205e-05
9.5221305e-08
9.0879052e-08
2.1432729e-05
9.3538799e-08
8.7962816e-08
2.1323107e-05
9.1905292e-08
8.5182575e-08
2.1216222e-05
9.0318487e-08
8.2530168e-08
2.1111965e-05
8.8776401e-08
7.9997902e-08
2.1010233e-05
8.7277102e-08
7.7578673e-08
2.0910927e-05
8.5818963e-08
7.526584e-08
2.0813956e-05
8.4400314e-08
7.3053426e-08
2.0719232e-05
8.3019664e-08
7.0935639e-08
2.0626671e-05
8.1675635e-08
6.8907212e-08
2.0536195e-05
8.0366841e-08
6.696313e-08
2.0447729e-05
7.909198e-08
6.5098777e-08
2.0361203e-05
7.7849806e-08
6.3309754e-08
2.0276548e-05
7.6639222e-08
6.1592016e-08
2.0193702e-05
7.5458988e-08
5.9941764e-08
2.0112602e-05
7.430798e-08
5.8355288e-08
2.0033193e-05
7.3184925e-08
5.6829067e-08
1.9955419e-05
7.2088614e-08
5.5359983e-08
1.9879228e-05
7.1017634e-08
5.3944855e-08
1.9804572e-05
6.9970435e-08
5.2580738e-08
1.9731406e-05
6.8945258e-08
5.1264781e-08
1.9659685e-05
6.7940087e-08
4.9994403e-08
1.9589371e-05
6.6953045e-08
4.8767045e-08
1.9520423e-05
6.5982351e-08
4.7580527e-08
1.9452807e-05
6.5028059e-08
4.6433095e-08
1.9386482e-05
6.4094146e-08
4.5323723e-08
1.9321404e-05
6.3194701e-08
4.4253066e-08
1.9257511e-05
6.2366349e-08
4.3225216e-08
1.9194705e-05
6.169518e-08
4.225312e-08
1.9132798e-05
6.1374106e-08
4.1377415e-08
1.9071394e-05
6.1822419e-08
4.0750678e-08
1.9009424e-05
6.3924749e-08
4.105763e-08
1.8944661e-05
6.9304682e-08
4.3998824e-08
7.9170961e-08
7.4661553e-08
0.0001054937
1.9169871e-06
6.4880406e-06
0.00010005365
3.2729596e-06
6.5816334e-06
9.4926077e-05
3.8288995e-06
6.1580776e-06
8.9946373e-05
3.9838108e-06
5.9262629e-06
8.5163276e-05
3.9595077e-06
5.6547657e-06
8.0619137e-05
3.7899368e-06
5.3103784e-06
7.6329462e-05
3.5015547e-06
4.9350725e-06
7.230016e-05
3.1412013e-06
4.5559928e-06
6.8534206e-05
2.7514802e-06
4.1846641e-06
6.5032983e-05
2.3633493e-06
3.8278852e-06
6.1795789e-05
1.9984143e-06
3.490711e-06
5.8818843e-05
1.6703759e-06
3.176301e-06
5.6094717e-05
1.3858295e-06
2.886043e-06
5.3612488e-05
1.1457945e-06
2.6200649e-06
5.1358373e-05
9.4764117e-07
2.3777043e-06
4.9316593e-05
7.8676784e-07
2.1578271e-06
4.7470246e-05
6.5779547e-07
1.9590391e-06
4.5802069e-05
5.5532542e-07
1.7798252e-06
4.4295042e-05
4.7437115e-07
1.6186378e-06
4.293283e-05
4.1056667e-07
1.4739479e-06
4.1700078e-05
3.6023236e-07
1.3442759e-06
4.0582591e-05
3.2035742e-07
1.2282094e-06
3.956742e-05
2.8853732e-07
1.1244154e-06
3.8642881e-05
2.6289063e-07
1.0316467e-06
3.7798527e-05
2.4196985e-07
9.4874403e-07
3.7025076e-05
2.2467703e-07
8.7465172e-07
3.6314324e-05
2.1018896e-07
8.084041e-07
3.5659057e-05
1.9788604e-07
7.4911041e-07
3.5052961e-05
1.8731583e-07
6.9597281e-07
3.4490519e-05
1.781487e-07
6.4827382e-07
3.3966922e-05
1.7013168e-07
6.0537437e-07
3.3477973e-05
1.6306725e-07
5.6670867e-07
3.3020016e-05
1.5680297e-07
5.3177541e-07
3.2589865e-05
1.5122055e-07
5.0013242e-07
3.218474e-05
1.4622565e-07
4.7139137e-07
3.1802215e-05
1.4174076e-07
4.4521233e-07
3.1440168e-05
1.3770097e-07
4.2129807e-07
3.1096739e-05
1.3405097e-07
3.9938923e-07
3.0770297e-05
1.3074293e-07
3.7925952e-07
3.0459402e-05
1.2773518e-07
3.6071196e-07
3.0162787e-05
1.2499093e-07
3.4357481e-07
2.9879325e-05
1.2247783e-07
3.2769851e-07
2.960802e-05
1.2016734e-07
3.1295272e-07
2.934798e-05
1.1803382e-07
2.9922353e-07
2.9098408e-05
1.1605463e-07
2.864114e-07
2.885859e-05
1.1420981e-07
2.7442908e-07
2.8627882e-05
1.1248193e-07
2.6319999e-07
2.8405701e-05
1.108556e-07
2.5265686e-07
2.819152e-05
1.093176e-07
2.4274024e-07
2.7984859e-05
1.0785648e-07
2.3339754e-07
2.7785279e-05
1.0646277e-07
2.245821e-07
2.7592378e-05
1.0512868e-07
2.1625212e-07
2.740579e-05
1.0384737e-07
2.0837034e-07
2.7225174e-05
1.0261116e-07
2.0090359e-07
2.705022e-05
1.0140747e-07
1.9382256e-07
2.6880641e-05
1.0023382e-07
1.871004e-07
2.6716166e-05
9.9092339e-08
1.8071226e-07
2.6556546e-05
9.7979999e-08
1.7463559e-07
2.6401548e-05
9.6892502e-08
1.6885013e-07
2.6250957e-05
9.5827082e-08
1.6333741e-07
2.610457e-05
9.4781734e-08
1.5808044e-07
2.5962199e-05
9.3754725e-08
1.5306361e-07
2.5823666e-05
9.2744867e-08
1.482726e-07
2.5688804e-05
9.1751016e-08
1.4369413e-07
2.5557458e-05
9.0771758e-08
1.3931597e-07
2.5429481e-05
8.9805224e-08
1.3512693e-07
2.5304734e-05
8.8851502e-08
1.3111646e-07
2.5183087e-05
8.7911231e-08
1.2727467e-07
2.5064416e-05
8.69839e-08
1.2359245e-07
2.4948604e-05
8.6068868e-08
1.200612e-07
2.4835542e-05
8.5165772e-08
1.1667304e-07
2.4725124e-05
8.4274309e-08
1.1342046e-07
2.4617252e-05
8.3394279e-08
1.1029654e-07
2.4511832e-05
8.2525465e-08
1.0729477e-07
2.4408775e-05
8.1667737e-08
1.0440899e-07
2.4307997e-05
8.0820989e-08
1.0163344e-07
2.4209416e-05
7.9985015e-08
9.8962658e-08
2.4112956e-05
7.9159763e-08
9.6391554e-08
2.4018546e-05
7.8345034e-08
9.3915307e-08
2.3926115e-05
7.7540704e-08
9.1529285e-08
2.3835598e-05
7.6746545e-08
8.9229251e-08
2.3746933e-05
7.5962346e-08
8.7011063e-08
2.366006e-05
7.5187649e-08
8.4870723e-08
2.3574922e-05
7.4421987e-08
8.2804557e-08
2.3491466e-05
7.366465e-08
8.0808926e-08
2.3409641e-05
7.2914644e-08
7.8880365e-08
2.33294e-05
7.217069e-08
7.701551e-08
2.3250698e-05
7.1431322e-08
7.5211011e-08
2.3173493e-05
7.0694861e-08
7.3463631e-08
2.3097745e-05
6.9960216e-08
7.1770044e-08
2.3023418e-05
6.9227985e-08
7.0126982e-08
2.2950477e-05
6.8503527e-08
6.8531198e-08
2.2878889e-05
6.7802898e-08
6.6979712e-08
2.2808619e-05
6.7165078e-08
6.5471564e-08
2.2739625e-05
6.6675254e-08
6.4013338e-08
2.267185e-05
6.6507064e-08
6.2642295e-08
2.2605149e-05
6.6990738e-08
6.1532382e-08
2.2538888e-05
6.8686039e-08
6.1499908e-08
2.2471121e-05
7.2226945e-08
6.4845102e-08
7.6722832e-08
9.8461311e-08
0.0001051979
1.3340884e-06
6.4961221e-06
9.9496561e-05
2.3731022e-06
6.6011947e-06
9.4262459e-05
2.9019223e-06
6.1610799e-06
8.9251186e-05
3.0856641e-06
5.9094196e-06
8.4493498e-05
3.0947347e-06
5.6224614e-06
8.0033635e-05
2.9846657e-06
5.265134e-06
7.5876907e-05
2.7790155e-06
4.8792667e-06
7.2014635e-05
2.5106844e-06
4.4927895e-06
6.8436293e-05
2.2128728e-06
4.116949e-06
6.5131387e-05
1.9107259e-06
3.7575292e-06
6.208941e-05
1.621732e-06
3.4186596e-06
5.9299432e-05
1.3573877e-06
3.1029661e-06
5.6749589e-05
1.1240344e-06
2.8116386e-06
5.4426788e-05
9.2377947e-07
2.5448157e-06
5.2316754e-05
7.5572799e-07
2.3019466e-06
5.0404313e-05
6.1717855e-07
2.0820302e-06
4.8673788e-05
5.0454351e-07
1.8837772e-06
4.7109414e-05
4.1397181e-07
1.7057274e-06
4.5695713e-05
3.417365e-07
1.5463363e-06
4.4417792e-05
2.8445146e-07
1.4040359e-06
4.3261575e-05
2.3917113e-07
1.277278e-06
4.2213952e-05
2.0341504e-07
1.1645652e-06
4.1262871e-05
1.7514743e-07
1.0644718e-06
4.039737e-05
1.527323e-07
9.7565898e-07
3.9607583e-05
1.348753e-07
8.9688143e-07
3.8884688e-05
1.2055569e-07
8.270164e-07
3.8220848e-05
1.0901089e-07
7.6501855e-07
3.7609155e-05
9.9633816e-08
7.0994487e-07
3.7043542e-05
9.1977418e-08
6.6095089e-07
3.6518702e-05
8.5705818e-08
6.1728292e-07
3.6030009e-05
8.0552392e-08
5.7827311e-07
3.5573433e-05
7.6308284e-08
5.4333416e-07
3.5145475e-05
7.2811274e-08
5.1195031e-07
3.4743091e-05
6.9934133e-08
4.8367024e-07
3.4363641e-05
6.7575436e-08
4.5810065e-07
3.4004828e-05
6.5652869e-08
4.3489998e-07
3.3664659e-05
6.4098586e-08
4.1377208e-07
3.3341393e-05
6.2855922e-08
3.9446095e-07
3.3033513e-05
6.1877019e-08
3.7674524e-07
3.2739693e-05
6.1121102e-08
3.6043424e-07
3.2458768e-05
6.0553087e-08
3.4536327e-07
3.2189712e-05
6.0142693e-08
3.3139055e-07
3.1931622e-05
5.986366e-08
3.1839375e-07
3.1683696e-05
5.9693113e-08
3.0626734e-07
3.1445219e-05
5.9611224e-08
2.9492012e-07
3.1215555e-05
5.9600647e-08
2.8427317e-07
3.0994132e-05
5.9646539e-08
2.7425807e-07
3.0780436e-05
5.9736147e-08
2.6481538e-07
3.0574002e-05
5.9858671e-08
2.5589333e-07
3.0374407e-05
6.0004943e-08
2.4744661e-07
3.0181266e-05
6.0167633e-08
2.3943548e-07
2.9994229e-05
6.0341246e-08
2.3182489e-07
2.9812971e-05
6.0521825e-08
2.2458372e-07
2.9637193e-05
6.0704454e-08
2.1768456e-07
2.9466629e-05
6.0867309e-08
2.1110455e-07
2.9301024e-05
6.1016961e-08
2.0482177e-07
2.914014e-05
6.1160865e-08
1.9881567e-07
2.8983756e-05
6.1294945e-08
1.9306835e-07
2.8831669e-05
6.1415478e-08
1.8756387e-07
2.8683688e-05
6.1520952e-08
1.8228764e-07
2.8539633e-05
6.1610535e-08
1.7722633e-07
2.8399336e-05
6.1683798e-08
1.7236781e-07
2.8262639e-05
6.1740467e-08
1.6770089e-07
2.8129394e-05
6.1780681e-08
1.6321519e-07
2.7999461e-05
6.1803903e-08
1.5890123e-07
2.7872709e-05
6.1807361e-08
1.5475038e-07
2.7749012e-05
6.1793578e-08
1.5075444e-07
2.7628253e-05
6.1764825e-08
1.4690559e-07
2.7510319e-05
6.1721003e-08
1.4319662e-07
2.7395105e-05
6.1662124e-08
1.3962086e-07
2.728251e-05
6.1588636e-08
1.3617201e-07
2.7172439e-05
6.1501085e-08
1.3284422e-07
2.7064802e-05
6.1399976e-08
1.2963187e-07
2.6959511e-05
6.1285904e-08
1.2652991e-07
2.6856486e-05
6.1159505e-08
1.2353324e-07
2.6755649e-05
6.1021313e-08
1.2063731e-07
2.6656924e-05
6.0871868e-08
1.1783767e-07
2.6560242e-05
6.0711726e-08
1.1513015e-07
2.6465535e-05
6.0541372e-08
1.1251078e-07
2.6372738e-05
6.0361305e-08
1.0997576e-07
2.6281791e-05
6.0171946e-08
1.0752157e-07
2.6192636e-05
5.9973553e-08
1.051447e-07
2.6105215e-05
5.9766297e-08
1.0284179e-07
2.6019477e-05
5.9550262e-08
1.0060974e-07
2.5935371e-05
5.9325147e-08
9.8445248e-08
2.585285e-05
5.9090492e-08
9.6345369e-08
2.5771868e-05
5.8845515e-08
9.430692e-08
2.5692384e-05
5.8588998e-08
9.2326757e-08
2.5614357e-05
5.8319786e-08
9.0401419e-08
2.5537753e-05
5.8037072e-08
8.8527324e-08
2.5462539e-05
5.7741649e-08
8.6700196e-08
2.5388689e-05
5.7438415e-08
8.4915179e-08
2.5316184e-05
5.7141425e-08
8.3166638e-08
2.5245017e-05
5.6882605e-08
8.1449631e-08
2.51752e-05
5.672602e-08
7.9765811e-08
2.510677e-05
5.6787899e-08
7.8149183e-08
2.5039729e-05
5.7251615e-08
7.6780997e-08
2.4973573e-05
5.8330941e-08
7.6510238e-08
2.4906079e-05
5.99895e-08
7.9732187e-08
6.0715e-08
1.1287824e-07
0.00010503672
9.0789369e-07
6.5005614e-06
9.9140653e-05
1.6524914e-06
6.6166801e-06
9.3788329e-05
2.0825241e-06
6.1717217e-06
8.8708526e-05
2.2549373e-06
5.91053e-06
8.3909682e-05
2.278404e-06
5.6151748e-06
7.9437109e-05
2.2074821e-06
5.2497564e-06
7.5296201e-05
2.0645348e-06
4.8553893e-06
7.1474034e-05
1.8722543e-06
4.4605969e-06
6.7955013e-05
1.6547667e-06
4.0771269e-06
6.4723621e-05
1.4313505e-06
3.7107669e-06
6.1764423e-05
1.2154297e-06
3.3655007e-06
5.9062056e-05
1.015864e-06
3.0438911e-06
5.6601108e-05
8.3782741e-07
2.7471548e-06
5.4365944e-05
6.8344647e-07
2.475497e-06
5.2340648e-05
5.5258528e-07
2.2284384e-06
5.0509125e-05
4.4366549e-07
2.0050361e-06
4.8855299e-05
3.5433457e-07
1.8040352e-06
4.7363353e-05
2.8193591e-07
1.6239821e-06
4.6017963e-05
2.2381347e-07
1.4633127e-06
4.4804503e-05
1.7749385e-07
1.320418e-06
4.3709199e-05
1.4078089e-07
1.1936935e-06
4.2719248e-05
1.1179156e-07
1.081575e-06
4.1822875e-05
8.8954543e-08
9.8256584e-07
4.1009364e-05
7.0987985e-08
8.9525472e-07
4.0269054e-05
5.686183e-08
8.183238e-07
3.9593306e-05
4.5719113e-08
7.5058476e-07
3.8974405e-05
3.6977832e-08
6.9093435e-07
3.8405585e-05
3.0067349e-08
6.3838629e-07
3.7880869e-05
2.4650845e-08
5.9204241e-07
3.7395029e-05
2.0439976e-08
5.5110607e-07
3.6943514e-05
1.7190275e-08
5.1487713e-07
3.6522366e-05
1.4716716e-08
4.8273959e-07
3.6128148e-05
1.2874778e-08
4.5415392e-07
3.5757883e-05
1.1549918e-08
4.2864945e-07
3.5408991e-05
1.065078e-08
4.0581705e-07
3.5079238e-05
1.0103638e-08
3.8530227e-07
3.4766689e-05
9.8482536e-09
3.6679877e-07
3.4469668e-05
9.8350921e-09
3.5004232e-07
3.4186716e-05
1.0022924e-08
3.3480552e-07
3.3916567e-05
1.0377052e-08
3.2089286e-07
3.3658116e-05
1.0868096e-08
3.0813658e-07
3.3410395e-05
1.1471006e-08
2.9639283e-07
3.3172556e-05
1.2164252e-08
2.8553826e-07
3.2943852e-05
1.2929317e-08
2.7546719e-07
3.2723625e-05
1.3750176e-08
2.6608891e-07
3.2511286e-05
1.4613068e-08
2.5732573e-07
3.2306316e-05
1.5506235e-08
2.4911069e-07
3.2108246e-05
1.6419627e-08
2.4138621e-07
3.1916658e-05
1.734464e-08
2.3410267e-07
3.1731171e-05
1.8274308e-08
2.2721711e-07
3.1551444e-05
1.9203171e-08
2.2069215e-07
3.1377162e-05
2.012774e-08
2.1449511e-07
3.1208038e-05
2.1048663e-08
2.0859681e-07
3.10438e-05
2.1972808e-08
2.0297058e-07
3.0884232e-05
2.282785e-08
1.9760738e-07
3.0729103e-05
2.3662962e-08
1.9248228e-07
3.05782e-05
2.4490022e-08
1.8757379e-07
3.0431331e-05
2.5296276e-08
1.8286763e-07
3.0288318e-05
2.6077966e-08
1.7835076e-07
3.0148994e-05
2.6834312e-08
1.7401106e-07
3.0013202e-05
2.756468e-08
1.698375e-07
2.9880797e-05
2.8268945e-08
1.6582023e-07
2.975164e-05
2.8947412e-08
1.6195014e-07
2.96256e-05
2.9600786e-08
1.5821897e-07
2.9502557e-05
3.022855e-08
1.5461923e-07
2.9382396e-05
3.0823577e-08
1.5114469e-07
2.9265007e-05
3.1393106e-08
1.4778877e-07
2.9150287e-05
3.193959e-08
1.4454538e-07
2.9038137e-05
3.2461899e-08
1.4140899e-07
2.8928465e-05
3.2960054e-08
1.383746e-07
2.8821181e-05
3.343472e-08
1.354375e-07
2.8716203e-05
3.3886337e-08
1.325933e-07
2.8613449e-05
3.4315529e-08
1.2983786e-07
2.8512845e-05
3.4722854e-08
1.2716736e-07
2.8414317e-05
3.5108977e-08
1.2457818e-07
2.8317797e-05
3.5474422e-08
1.220668e-07
2.8223219e-05
3.581991e-08
1.1963007e-07
2.813052e-05
3.614595e-08
1.1726492e-07
2.803964e-05
3.6453106e-08
1.1496839e-07
2.7950522e-05
3.6741893e-08
1.1273774e-07
2.7863111e-05
3.7012806e-08
1.1057027e-07
2.7777354e-05
3.7266216e-08
1.0846342e-07
2.7693204e-05
3.7502479e-08
1.0641474e-07
2.761061e-05
3.7721614e-08
1.0442179e-07
2.752953e-05
3.7923561e-08
1.0248201e-07
2.744992e-05
3.8108006e-08
1.0059304e-07
2.7371738e-05
3.8274296e-08
9.8752302e-08
2.7294949e-05
3.8421578e-08
9.6956936e-08
2.7219516e-05
3.8548753e-08
9.5203636e-08
2.714541e-05
3.8655095e-08
9.3488614e-08
2.7072603e-05
3.8741104e-08
9.1806941e-08
2.7001079e-05
3.8810255e-08
9.015231e-08
2.6930832e-05
3.887214e-08
8.8516573e-08
2.6861876e-05
3.8947384e-08
8.689054e-08
2.679426e-05
3.9073499e-08
8.5269171e-08
2.6728065e-05
3.9306945e-08
8.3675955e-08
2.6663337e-05
3.9708347e-08
8.2271172e-08
2.659956e-05
4.0271998e-08
8.1836187e-08
2.6534295e-05
4.0698039e-08
8.4555725e-08
3.9620852e-08
1.1507132e-07
0.00010494757
5.681108e-07
6.5033076e-06
9.8925416e-05
1.0462983e-06
6.6283516e-06
9.3480449e-05
1.3439844e-06
6.1835065e-06
8.8341777e-05
1.4751324e-06
5.9184763e-06
8.3502084e-05
1.4993911e-06
5.6187065e-06
7.9004057e-05
1.4572411e-06
5.2482679e-06
7.4853978e-05
1.3667382e-06
4.8478757e-06
7.1037378e-05
1.2423973e-06
4.4464569e-06
6.7536063e-05
1.0997693e-06
4.0563128e-06
6.4331998e-05
9.5192359e-07
3.683491e-06
6.1407318e-05
8.0805754e-07
3.3320524e-06
5.8744339e-05
6.7422202e-07
3.0046209e-06
5.6325632e-05
5.5404399e-07
2.7024907e-06
5.4133973e-05
4.4916744e-07
2.4259383e-06
5.2152298e-05
3.5972399e-07
2.174536e-06
5.0363747e-05
2.8484514e-07
1.9473718e-06
4.875178e-05
2.2310006e-07
1.7432015e-06
4.7300339e-05
1.7281169e-07
1.5605647e-06
4.5994012e-05
1.3226575e-07
1.3978748e-06
4.4818177e-05
9.9840012e-08
1.2534891e-06
4.3759121e-05
7.4075577e-08
1.1257614e-06
4.2804123e-05
5.3707624e-08
1.0130814e-06
4.1941503e-05
3.7671215e-08
9.1390376e-07
4.1160627e-05
2.5096466e-08
8.2676731e-07
4.0451891e-05
1.5294175e-08
7.5030385e-07
3.980679e-05
7.5281675e-09
6.8329174e-07
3.9217543e-05
1.6727765e-09
6.2455204e-07
3.8677513e-05
-3.0330963e-09
5.7313082e-07
3.8180739e-05
-6.6486764e-09
5.2807353e-07
3.7722004e-05
-9.3594874e-09
4.8853452e-07
3.7296777e-05
-1.13718e-08
4.5378925e-07
3.6901112e-05
-1.2818241e-08
4.2319913e-07
3.6531588e-05
-1.3805294e-08
3.9620481e-07
3.6185236e-05
-1.4417466e-08
3.7231876e-07
3.5859491e-05
-1.4721844e-08
3.5111778e-07
3.5552132e-05
-1.4772591e-08
3.3223581e-07
3.5261237e-05
-1.4613901e-08
3.1535729e-07
3.4985143e-05
-1.4282166e-08
3.0021089e-07
3.472241e-05
-1.3807679e-08
2.8656376e-07
3.4471787e-05
-1.321587e-08
2.742163e-07
3.4232185e-05
-1.2528182e-08
2.6299769e-07
3.4002657e-05
-1.1762815e-08
2.5276174e-07
3.3782373e-05
-1.0935238e-08
2.4338337e-07
3.3570606e-05
-1.0058777e-08
2.3475556e-07
3.3366714e-05
-9.1447255e-09
2.2678673e-07
3.3170131e-05
-8.2028404e-09
2.1939834e-07
3.2980356e-05
-7.2412094e-09
2.1252301e-07
3.279694e-05
-6.2668757e-09
2.061028e-07
3.2619482e-05
-5.2855239e-09
2.0008781e-07
3.2447623e-05
-4.3018261e-09
1.9443477e-07
3.228104e-05
-3.3190521e-09
1.8910586e-07
3.2119438e-05
-2.3383044e-09
1.8406738e-07
3.1962554e-05
-1.3530621e-09
1.7928648e-07
3.1810075e-05
-2.7630751e-10
1.7472768e-07
3.1661878e-05
5.8585252e-10
1.7043905e-07
3.1517732e-05
1.435592e-09
1.6637293e-07
3.1377429e-05
2.3038231e-09
1.6248956e-07
3.1240792e-05
3.1586357e-09
1.5877485e-07
3.1107656e-05
3.9969754e-09
1.5521718e-07
3.0977867e-05
4.8171496e-09
1.5180547e-07
3.0851284e-05
5.6179596e-09
1.4852967e-07
3.0727774e-05
6.3990091e-09
1.4538078e-07
3.0607209e-05
7.1609204e-09
1.4235053e-07
3.0489473e-05
7.905926e-09
1.3943122e-07
3.037445e-05
8.6357414e-09
1.3661581e-07
3.0262049e-05
9.3206337e-09
1.3390398e-07
3.0152163e-05
9.9937935e-09
1.3128569e-07
3.0044697e-05
1.0650364e-08
1.2875512e-07
2.9939564e-05
1.1286762e-08
1.2630827e-07
2.983668e-05
1.1903221e-08
1.239409e-07
2.9735965e-05
1.2500138e-08
1.2164885e-07
2.9637345e-05
1.3077879e-08
1.1942845e-07
2.9540748e-05
1.363673e-08
1.1727618e-07
2.9446105e-05
1.4177034e-08
1.1518884e-07
2.9353352e-05
1.469917e-08
1.1316337e-07
2.9262425e-05
1.5203536e-08
1.1119703e-07
2.9173268e-05
1.5690486e-08
1.0928707e-07
2.9085822e-05
1.6160404e-08
1.0743107e-07
2.9000035e-05
1.6613586e-08
1.0562663e-07
2.8915855e-05
1.7050385e-08
1.0387156e-07
2.8833233e-05
1.7471105e-08
1.0216363e-07
2.8752123e-05
1.787595e-08
1.0050081e-07
2.8672479e-05
1.8265079e-08
9.8881096e-08
2.8594259e-05
1.8638544e-08
9.7302515e-08
2.8517424e-05
1.8996238e-08
9.5762948e-08
2.8441934e-05
1.9337854e-08
9.4260341e-08
2.8367753e-05
1.9662806e-08
9.2792331e-08
2.8294848e-05
1.9970481e-08
9.1356261e-08
2.8223187e-05
2.0260005e-08
8.9948864e-08
2.8152746e-05
2.0530701e-08
8.8565928e-08
2.8083503e-05
2.0782574e-08
8.7201786e-08
2.8015447e-05
2.1017535e-08
8.5848664e-08
2.7948582e-05
2.1240741e-08
8.4495846e-08
2.7882937e-05
2.1462733e-08
8.3129525e-08
2.7818574e-05
2.1699975e-08
8.173653e-08
2.7755588e-05
2.1969262e-08
8.0324345e-08
2.7694014e-05
2.2266176e-08
7.9016093e-08
2.7633299e-05
2.250629e-08
7.8480673e-08
2.7571004e-05
2.2393424e-08
8.0599474e-08
2.0993104e-08
1.0779946e-07
0.00010489986
2.7443376e-07
6.5049155e-06
9.8802772e-05
5.0716633e-07
6.6362236e-06
9.329591e-05
6.5854973e-07
6.1922972e-06
8.8116302e-05
7.2902544e-07
5.9257148e-06
8.3248198e-05