/*--------------------------------*- C++ -*----------------------------------*\
  =========                 |
  \\      /  F ield         | OpenFOAM: The Open Source CFD Toolbox
   \\    /   O peration     | Website:  https://openfoam.org
    \\  /    A nd           | Version:  7
     \\/     M anipulation  |
\*---------------------------------------------------------------------------*/
FoamFile
{
    version     2.0;
    format      ascii;
    class       volVectorField;
    location    "2600/water";
    object      U;
}
// * * * * * * * * * * * * * * * * * * * * * * * * * * * * * * * * * * * * * //

dimensions      [0 1 -1 0 0 0 0];

internalField   nonuniform List<vector> 
54000
(
(0.0090020934 0.00020305973 0.00020444027)
(0.0083186447 0.00023622738 0.00023904411)
(0.0073695241 0.00021363852 0.00021763527)
(0.0063566114 0.00018488016 0.00018965819)
(0.0054486673 0.00015530836 0.00016048633)
(0.0046741594 0.00012529952 0.00013052937)
(0.0040193038 9.705261e-05 0.00010203017)
(0.0034740067 7.2578998e-05 7.7073287e-05)
(0.0030302461 5.2876127e-05 5.6738328e-05)
(0.0026757323 3.8068151e-05 4.1216513e-05)
(0.0023947254 2.7637704e-05 3.0037141e-05)
(0.0021713898 2.0689034e-05 2.2336507e-05)
(0.0019919695 1.6236161e-05 1.7152703e-05)
(0.0018455015 1.3416237e-05 1.3643173e-05)
(0.0017237326 1.1582488e-05 1.1179122e-05)
(0.0016206928 1.0304892e-05 9.3455812e-06)
(0.0015321593 9.3257908e-06 7.8957155e-06)
(0.0014551546 8.505297e-06 6.6953107e-06)
(0.0013875459 7.7746336e-06 5.6760576e-06)
(0.0013277612 7.1034281e-06 4.8034863e-06)
(0.001274601 6.4798496e-06 4.0581565e-06)
(0.0012271179 5.899946e-06 3.4261582e-06)
(0.0011845424 5.3625306e-06 2.895072e-06)
(0.001146235 4.8670209e-06 2.4526298e-06)
(0.0011116558 4.4125991e-06 2.086976e-06)
(0.0010803434 3.9980129e-06 1.7867444e-06)
(0.0010519002 3.6214609e-06 1.5416133e-06)
(0.0010259819 3.280594e-06 1.3421853e-06)
(0.001002289 2.9733952e-06 1.1797308e-06)
(0.00098056199 2.697949e-06 1.0463193e-06)
(0.00096057571 2.4519213e-06 9.3658934e-07)
(0.00094213242 2.2325667e-06 8.4693401e-07)
(0.00092505792 2.0373867e-06 7.7316552e-07)
(0.00090920047 1.8640898e-06 7.1184114e-07)
(0.00089442818 1.7104632e-06 6.6046713e-07)
(0.0008806259 1.5743825e-06 6.1707368e-07)
(0.00086769295 1.4538616e-06 5.8005455e-07)
(0.00085554128 1.3470708e-06 5.4811572e-07)
(0.00084409387 1.2523496e-06 5.2023932e-07)
(0.00083328322 1.1681985e-06 4.9562898e-07)
(0.00082305015 1.0932613e-06 4.7365338e-07)
(0.00081334267 1.0262291e-06 4.5378323e-07)
(0.00080411486 9.6585954e-07 4.3554474e-07)
(0.00079532615 9.1131114e-07 4.1865041e-07)
(0.0007869407 8.6191629e-07 4.029067e-07)
(0.00077892675 8.1708279e-07 3.881688e-07)
(0.00077125603 7.7627635e-07 3.7432097e-07)
(0.0007639033 7.3902594e-07 3.6127548e-07)
(0.00075684598 7.0491408e-07 3.4896418e-07)
(0.00075006373 6.7357577e-07 3.3733182e-07)
(0.00074353821 6.4469375e-07 3.2633691e-07)
(0.00073725293 6.1802459e-07 3.1581811e-07)
(0.00073119314 5.9334744e-07 3.0574361e-07)
(0.00072534528 5.7041905e-07 2.9621112e-07)
(0.00071969687 5.4902402e-07 2.8716635e-07)
(0.00071423653 5.290146e-07 2.7854345e-07)
(0.00070895386 5.1027334e-07 2.7031156e-07)
(0.00070383928 4.9268647e-07 2.6244796e-07)
(0.00069888397 4.7614502e-07 2.5493267e-07)
(0.00069407976 4.6055021e-07 2.4774341e-07)
(0.00068941911 4.458206e-07 2.4086394e-07)
(0.00068489502 4.3188482e-07 2.3427631e-07)
(0.00068050098 4.1867929e-07 2.2796474e-07)
(0.00067623091 4.0614682e-07 2.2191253e-07)
(0.00067207915 3.9423512e-07 2.161059e-07)
(0.00066804042 3.8289673e-07 2.1053155e-07)
(0.00066410976 3.7209443e-07 2.0517911e-07)
(0.00066028251 3.6179407e-07 2.0003186e-07)
(0.00065655429 3.5196184e-07 1.9508358e-07)
(0.00065292099 3.4256918e-07 1.9031887e-07)
(0.00064937872 3.3358547e-07 1.8572837e-07)
(0.00064592384 3.2498784e-07 1.8130517e-07)
(0.00064255288 3.1675099e-07 1.770398e-07)
(0.00063926261 3.0885712e-07 1.7292533e-07)
(0.00063604992 3.0128249e-07 1.6895114e-07)
(0.00063291192 2.9401345e-07 1.651112e-07)
(0.00062984583 2.870315e-07 1.6139792e-07)
(0.00062684904 2.8032144e-07 1.578037e-07)
(0.00062391907 2.7387048e-07 1.5431952e-07)
(0.00062105358 2.6766559e-07 1.5094144e-07)
(0.00061825035 2.61695e-07 1.4766112e-07)
(0.00061550727 2.5594475e-07 1.4446983e-07)
(0.00061282235 2.5040687e-07 1.4135925e-07)
(0.00061019373 2.4506864e-07 1.3832412e-07)
(0.00060761964 2.3991935e-07 1.3535691e-07)
(0.00060509846 2.3494517e-07 1.3244926e-07)
(0.00060262863 2.3013452e-07 1.2959858e-07)
(0.00060020873 2.2547028e-07 1.2680525e-07)
(0.00059783744 2.2093188e-07 1.2407545e-07)
(0.00059551348 2.1649853e-07 1.2143379e-07)
(0.00059323555 2.1214962e-07 1.1892932e-07)
(0.00059100214 2.0787205e-07 1.1666181e-07)
(0.00058881114 2.0369105e-07 1.1483052e-07)
(0.00058665898 1.997316e-07 1.1381922e-07)
(0.0005845387 1.9638432e-07 1.144103e-07)
(0.00058243502 1.9487182e-07 1.1837235e-07)
(0.00058031396 1.9977432e-07 1.3094374e-07)
(0.0005781161 2.2258407e-07 1.6397671e-07)
(0.00057566369 1.9706909e-07 1.5080613e-07)
(0.00056906201 7.8896445e-07 7.53227e-07)
(0.0095316863 0.0003313754 0.00022336697)
(0.0092716504 0.00041105943 0.00027052342)
(0.0087756651 0.00040317187 0.00026060062)
(0.0081527518 0.00038218754 0.00024252081)
(0.0075302151 0.00035309574 0.00022101124)
(0.0069425889 0.00031541062 0.00019648834)
(0.006391209 0.00027309198 0.00017102969)
(0.0058791845 0.00023030693 0.00014652546)
(0.0054120202 0.00019001855 0.00012410997)
(0.0049926512 0.00015423459 0.00010436627)
(0.004620592 0.00012408347 8.7479017e-05)
(0.0042931332 9.9809403e-05 7.3327495e-05)
(0.0040063965 8.0956424e-05 6.1601503e-05)
(0.0037559538 6.667221e-05 5.1918794e-05)
(0.0035372541 5.59858e-05 4.3907444e-05)
(0.003345947 4.7992056e-05 3.7246645e-05)
(0.0031780884 4.1941711e-05 3.1677529e-05)
(0.0030302311 3.7262447e-05 2.6997921e-05)
(0.0028994324 3.3540996e-05 2.3051138e-05)
(0.0027832152 3.0490244e-05 1.9714593e-05)
(0.0026795075 2.7915735e-05 1.6890543e-05)
(0.0025865783 2.5687841e-05 1.4499382e-05)
(0.002502978 2.3720893e-05 1.2475016e-05)
(0.0024274871 2.1958429e-05 1.0761725e-05)
(0.0023590736 2.0362992e-05 9.3122319e-06)
(0.0022968589 1.8909453e-05 8.0861286e-06)
(0.0022400906 1.7580769e-05 7.0489629e-06)
(0.0021881216 1.6364899e-05 6.1714983e-06)
(0.0021403932 1.5251963e-05 5.4283131e-06)
(0.0020964214 1.4233849e-05 4.7973506e-06)
(0.0020557868 1.330304e-05 4.2604828e-06)
(0.0020181236 1.2451986e-05 3.8027043e-06)
(0.0019831119 1.1673909e-05 3.4109603e-06)
(0.0019504718 1.0962756e-05 3.07442e-06)
(0.0019199589 1.0312855e-05 2.7842603e-06)
(0.0018913593 9.7188328e-06 2.5331797e-06)
(0.0018644851 9.175645e-06 2.3150753e-06)
(0.0018391716 8.6785717e-06 2.1248315e-06)
(0.0018152735 8.2232428e-06 1.9581831e-06)
(0.001792663 7.8056207e-06 1.8115687e-06)
(0.0017712268 7.4219972e-06 1.6820115e-06)
(0.001750865 7.0689372e-06 1.5670707e-06)
(0.0017314886 6.7432697e-06 1.4647419e-06)
(0.0017130186 6.4422731e-06 1.3732758e-06)
(0.0016953848 6.163556e-06 1.2911598e-06)
(0.0016785241 5.9049777e-06 1.2171196e-06)
(0.00166238 5.6646101e-06 1.1500843e-06)
(0.0016469019 5.4407251e-06 1.0891487e-06)
(0.001632044 5.231776e-06 1.0335538e-06)
(0.0016177648 5.0363839e-06 9.8265432e-07)
(0.0016040271 4.8533214e-06 9.358945e-07)
(0.0015907965 4.6815606e-06 8.9273728e-07)
(0.0015780424 4.5201563e-06 8.5278611e-07)
(0.0015657364 4.3681538e-06 8.1576991e-07)
(0.0015538526 4.2246814e-06 7.8138467e-07)
(0.0015423672 4.08906e-06 7.4934553e-07)
(0.0015312583 3.9607282e-06 7.1941338e-07)
(0.0015205058 3.8391509e-06 6.9138736e-07)
(0.0015100909 3.7238123e-06 6.6509403e-07)
(0.0014999963 3.6142421e-06 6.4038012e-07)
(0.0014902061 3.5100282e-06 6.1710832e-07)
(0.0014807053 3.4107981e-06 5.951605e-07)
(0.00147148 3.3162111e-06 5.7442788e-07)
(0.0014625175 3.2259589e-06 5.5481573e-07)
(0.0014538055 3.1397552e-06 5.3623603e-07)
(0.0014453328 3.0573347e-06 5.1861362e-07)
(0.0014370889 2.9784699e-06 5.0187819e-07)
(0.0014290637 2.9029581e-06 4.8596828e-07)
(0.001421248 2.8306026e-06 4.7082392e-07)
(0.001413633 2.7612181e-06 4.5639237e-07)
(0.0014062104 2.6946325e-06 4.4262905e-07)
(0.0013989723 2.630691e-06 4.2948744e-07)
(0.0013919116 2.5692445e-06 4.1692969e-07)
(0.0013850211 2.510163e-06 4.0492081e-07)
(0.0013782945 2.453318e-06 3.9342574e-07)
(0.0013717253 2.3985956e-06 3.8241072e-07)
(0.0013653078 2.3458851e-06 3.7185264e-07)
(0.0013590364 2.2950859e-06 3.6171798e-07)
(0.0013529058 2.2461043e-06 3.5198353e-07)
(0.001346911 2.1988507e-06 3.4262516e-07)
(0.0013410472 2.1532414e-06 3.3362019e-07)
(0.0013353099 2.1091954e-06 3.2494609e-07)
(0.001329695 2.0666366e-06 3.165785e-07)
(0.0013241983 2.0254875e-06 3.0850108e-07)
(0.001318816 1.9856732e-06 3.0069013e-07)
(0.0013135446 1.9471122e-06 2.9313092e-07)
(0.0013083808 1.9097254e-06 2.8580535e-07)
(0.0013033213 1.8734242e-06 2.7870235e-07)
(0.0012983632 1.838115e-06 2.7181619e-07)
(0.0012935038 1.8037141e-06 2.6515291e-07)
(0.0012887402 1.7701707e-06 2.5874269e-07)
(0.0012840698 1.737534e-06 2.5265035e-07)
(0.0012794889 1.7061222e-06 2.4701469e-07)
(0.0012749925 1.6769104e-06 2.4211276e-07)
(0.001270572 1.6524684e-06 2.3851709e-07)
(0.0012662098 1.6393324e-06 2.3766013e-07)
(0.0012618709 1.654576e-06 2.4458245e-07)
(0.0012574959 1.7463699e-06 2.7712462e-07)
(0.0012529717 2.037671e-06 2.6526439e-07)
(0.0012433358 2.951482e-06 1.352533e-06)
(0.0095221617 0.00021179965 0.00022180582)
(0.009269783 0.00029872516 0.00026628967)
(0.0088657772 0.00031669844 0.00025526743)
(0.0083755729 0.000317438 0.00023864265)
(0.0078888426 0.00030841043 0.00021987851)
(0.0074276349 0.00028848207 0.00019850458)
(0.006988258 0.0002604839 0.00017617916)
(0.0065698164 0.00022855168 0.00015444521)
(0.0061756011 0.00019596771 0.00013413534)
(0.0058087146 0.00016504408 0.00011567593)
(0.0054706295 0.00013728621 9.9270838e-05)
(0.0051615551 0.00011345265 8.494783e-05)
(0.0048808654 9.3684507e-05 7.2600736e-05)
(0.0046272998 7.7712987e-05 6.20449e-05)
(0.0043991196 6.5057026e-05 5.3064542e-05)
(0.0041942886 5.5163888e-05 4.5443629e-05)
(0.0040106431 4.7493347e-05 3.8982753e-05)
(0.0038460219 4.1561377e-05 3.3506381e-05)
(0.0036983537 3.6958194e-05 2.8864075e-05)
(0.0035657105 3.3351176e-05 2.4928486e-05)
(0.0034463343 3.0479503e-05 2.1592134e-05)
(0.003338646 2.8144769e-05 1.8764099e-05)
(0.003241243 2.6200155e-05 1.6367138e-05)
(0.0031528887 2.4539752e-05 1.4335369e-05)
(0.0030724986 2.3088866e-05 1.2612489e-05)
(0.0029991252 2.1796111e-05 1.1150135e-05)
(0.0029319421 2.0626905e-05 9.9064824e-06)
(0.0028702292 1.9558162e-05 8.845816e-06)
(0.0028133589 1.8574037e-05 7.9385375e-06)
(0.0027607855 1.7663622e-05 7.1598239e-06)
(0.0027120345 1.6818832e-05 6.4890351e-06)
(0.0026666927 1.6033066e-05 5.9090205e-06)
(0.0026243991 1.5301095e-05 5.4052717e-06)
(0.0025848382 1.4618819e-05 4.9656522e-06)
(0.0025477347 1.3982713e-05 4.5801141e-06)
(0.0025128472 1.3389542e-05 4.2403274e-06)
(0.002479964 1.2836282e-05 3.9393562e-06)
(0.0024488994 1.2320059e-05 3.6714264e-06)
(0.0024194896 1.1838145e-05 3.4317269e-06)
(0.00239159 1.138794e-05 3.2162516e-06)
(0.0023650729 1.0966986e-05 3.0216609e-06)
(0.0023398248 1.0573e-05 2.8451745e-06)
(0.0023157449 1.0203874e-05 2.684474e-06)
(0.0022927433 9.8575809e-06 2.5375942e-06)
(0.0022707398 9.5322154e-06 2.4028639e-06)
(0.002249662 9.2260293e-06 2.2788664e-06)
(0.0022294453 8.9374197e-06 2.1644e-06)
(0.0022100312 8.664929e-06 2.0584382e-06)
(0.0021913666 8.4072365e-06 1.9601021e-06)
(0.0021734038 8.1631535e-06 1.868631e-06)
(0.0021560989 7.9316208e-06 1.7833674e-06)
(0.0021394122 7.711723e-06 1.7037084e-06)
(0.0021233074 7.502602e-06 1.6291519e-06)
(0.0021077512 7.3033793e-06 1.559284e-06)
(0.0020927129 7.1131867e-06 1.4937201e-06)
(0.0020781645 6.9314157e-06 1.432104e-06)
(0.0020640799 6.7576049e-06 1.3741138e-06)
(0.0020504351 6.5912606e-06 1.3194617e-06)
(0.0020372075 6.4318784e-06 1.2678952e-06)
(0.0020243766 6.2790041e-06 1.2191868e-06)
(0.0020119231 6.1322399e-06 1.1731318e-06)
(0.001999829 5.9912203e-06 1.1295439e-06)
(0.0019880776 5.8556105e-06 1.0882503e-06)
(0.0019766531 5.7251041e-06 1.0490958e-06)
(0.0019655411 5.5994082e-06 1.011938e-06)
(0.0019547276 5.4782449e-06 9.7664618e-07)
(0.0019441999 5.3613909e-06 9.4310116e-07)
(0.0019339458 5.248648e-06 9.1118984e-07)
(0.0019239539 5.1398181e-06 8.8080679e-07)
(0.0019142135 5.0347014e-06 8.5185979e-07)
(0.0019047144 4.9331187e-06 8.2426007e-07)
(0.001895447 4.8349e-06 7.9792577e-07)
(0.0018864023 4.7398899e-06 7.7277962e-07)
(0.0018775718 4.6479425e-06 7.4875618e-07)
(0.0018689473 4.558922e-06 7.2578761e-07)
(0.0018605211 4.4727e-06 7.038143e-07)
(0.0018522861 4.389154e-06 6.8277798e-07)
(0.0018442353 4.3081697e-06 6.6262616e-07)
(0.0018363621 4.2296382e-06 6.4330745e-07)
(0.0018286604 4.1534581e-06 6.2477616e-07)
(0.0018211241 4.0795279e-06 6.0698937e-07)
(0.0018137478 4.0077538e-06 5.8990248e-07)
(0.0018065261 3.938036e-06 5.7347303e-07)
(0.001799454 3.8702792e-06 5.5766745e-07)
(0.0017925266 3.8043822e-06 5.4244744e-07)
(0.0017857396 3.7402363e-06 5.2777915e-07)
(0.0017790885 3.6777263e-06 5.1362888e-07)
(0.0017725695 3.6167251e-06 4.9997026e-07)
(0.0017661787 3.5571076e-06 4.8677522e-07)
(0.0017599128 3.4987606e-06 4.7402491e-07)
(0.0017537682 3.4416552e-06 4.6170975e-07)
(0.0017477416 3.3859657e-06 4.4983515e-07)
(0.0017418294 3.3323834e-06 4.3844244e-07)
(0.0017360272 3.2827927e-06 4.2764606e-07)
(0.0017303281 3.2417789e-06 4.1776772e-07)
(0.0017247202 3.2200424e-06 4.0999129e-07)
(0.001719183 3.2421554e-06 4.0985013e-07)
(0.001713691 3.3643436e-06 4.4114466e-07)
(0.0017081999 3.7072191e-06 4.7353326e-07)
(0.0016974804 4.4611203e-06 1.8634994e-06)
(0.0095012861 0.00013951169 0.00022248511)
(0.0092133349 0.00022408324 0.00026709763)
(0.0088018509 0.0002570094 0.00025529581)
(0.0083306071 0.00026690691 0.0002382081)
(0.0078754299 0.00026502158 0.00021939837)
(0.0074527063 0.0002529565 0.00019823245)
(0.0070564396 0.00023295893 0.00017634609)
(0.0066827538 0.00020836345 0.0001552305)
(0.006331873 0.00018203354 0.00013558338)
(0.0060047052 0.00015603739 0.00011769036)
(0.0057015056 0.00013180401 0.00010166909)
(0.0054220192 0.00011020725 8.7524314e-05)
(0.0051656909 9.1631899e-05 7.5171986e-05)
(0.0049316845 7.6091186e-05 6.4472618e-05)
(0.0047188814 6.3363142e-05 5.5261149e-05)
(0.0045259349 5.3104942e-05 4.736682e-05)
(0.0043513547 4.4932756e-05 4.0624899e-05)
(0.0041935865 3.847136e-05 3.4883033e-05)
(0.0040510752 3.3381245e-05 3.0003996e-05)
(0.0039223115 2.9370509e-05 2.5866181e-05)
(0.0038058643 2.6197262e-05 2.2362867e-05)
(0.0037004012 2.3666731e-05 1.9400962e-05)
(0.0036047 2.1625757e-05 1.689961e-05)
(0.0035176529 1.9956326e-05 1.4788823e-05)
(0.0034382652 1.8569047e-05 1.3008105e-05)
(0.0033656513 1.7397361e-05 1.1504745e-05)
(0.0032990266 1.6392002e-05 1.0233523e-05)
(0.0032376995 1.551624e-05 9.1565341e-06)
(0.0031810636 1.4743886e-05 8.2421113e-06)
(0.0031285885 1.4056151e-05 7.4635754e-06)
(0.0030798115 1.3438893e-05 6.7985193e-06)
(0.0030343294 1.288115e-05 6.2282222e-06)
(0.0029917905 1.2374495e-05 5.7369826e-06)
(0.0029518882 1.191242e-05 5.3116667e-06)
(0.0029143553 1.1489692e-05 4.9413538e-06)
(0.0028789586 1.1101929e-05 4.617001e-06)
(0.0028454946 1.0745381e-05 4.3311212e-06)
(0.0028137847 1.0416776e-05 4.0775281e-06)
(0.0027836727 1.0113219e-05 3.8511074e-06)
(0.0027550209 9.8321219e-06 3.6476459e-06)
(0.0027277081 9.5711608e-06 3.4636651e-06)
(0.002701627 9.3282499e-06 3.2963008e-06)
(0.0026766823 9.1015154e-06 3.1431917e-06)
(0.0026527895 8.8892439e-06 3.0023826e-06)
(0.0026298729 8.6898922e-06 2.8722568e-06)
(0.0026078648 8.5020893e-06 2.7514716e-06)
(0.002586704 8.3246177e-06 2.6389103e-06)
(0.0025663358 8.1563966e-06 2.5336423e-06)
(0.0025467102 7.9964767e-06 2.4348849e-06)
(0.002527782 7.8440267e-06 2.3419781e-06)
(0.0025095101 7.6983367e-06 2.2543607e-06)
(0.0024918566 7.5588091e-06 2.1715437e-06)
(0.0024747871 7.4248992e-06 2.0931119e-06)
(0.0024582699 7.2960206e-06 2.0187194e-06)
(0.0024422756 7.1714389e-06 1.9480687e-06)
(0.0024267775 7.0509275e-06 1.8808978e-06)
(0.0024117506 6.9343764e-06 1.8169529e-06)
(0.0023971715 6.8214894e-06 1.7560024e-06)
(0.0023830185 6.7119552e-06 1.6978519e-06)
(0.0023692714 6.6055375e-06 1.6423278e-06)
(0.0023559116 6.5020462e-06 1.5892719e-06)
(0.0023429214 6.4013086e-06 1.5385377e-06)
(0.0023302844 6.3031801e-06 1.4899937e-06)
(0.0023179851 6.2075252e-06 1.4435163e-06)
(0.0023060089 6.1142034e-06 1.3989935e-06)
(0.0022943424 6.0230695e-06 1.3563253e-06)
(0.0022829727 5.9340603e-06 1.315416e-06)
(0.0022718877 5.8471296e-06 1.2761705e-06)
(0.002261076 5.7622027e-06 1.2385027e-06)
(0.0022505267 5.6791963e-06 1.202331e-06)
(0.0022402296 5.5980417e-06 1.1675835e-06)
(0.0022301752 5.5186714e-06 1.1341882e-06)
(0.0022203542 5.4410304e-06 1.1020802e-06)
(0.002210758 5.3650619e-06 1.0711988e-06)
(0.0022013784 5.2907165e-06 1.0414845e-06)
(0.0021922076 5.2179487e-06 1.0128821e-06)
(0.0021832381 5.1467101e-06 9.8533835e-07)
(0.0021744628 5.0769587e-06 9.5880354e-07)
(0.0021658752 5.0086497e-06 9.3323096e-07)
(0.0021574688 4.9417449e-06 9.0857348e-07)
(0.0021492375 4.8761982e-06 8.8479073e-07)
(0.0021411756 4.8119678e-06 8.6184022e-07)
(0.0021332776 4.7489993e-06 8.3967928e-07)
(0.0021255383 4.6872397e-06 8.182712e-07)
(0.0021179527 4.6266225e-06 7.9757734e-07)
(0.0021105161 4.5670681e-06 7.7756072e-07)
(0.0021032242 4.5084814e-06 7.5818478e-07)
(0.0020960727 4.450754e-06 7.3941101e-07)
(0.0020890577 4.393775e-06 7.2120304e-07)
(0.0020821756 4.3374546e-06 7.0352009e-07)
(0.002075423 4.2818119e-06 6.8632075e-07)
(0.0020687967 4.2271347e-06 6.6956182e-07)
(0.0020622937 4.1743551e-06 6.5320351e-07)
(0.002055911 4.1258154e-06 6.3726159e-07)
(0.0020496453 4.0868298e-06 6.2198438e-07)
(0.0020434926 4.0687778e-06 6.0874696e-07)
(0.0020374483 4.0948774e-06 6.0452229e-07)
(0.0020315149 4.2094263e-06 6.398783e-07)
(0.0020256647 4.4797476e-06 7.1688398e-07)
(0.0020144539 4.9057771e-06 2.2695252e-06)
(0.0094902877 9.6726608e-05 0.00022289229)
(0.00917661 0.00016632333 0.00026788105)
(0.0087449456 0.00019969046 0.00025550648)
(0.0082664657 0.00021101604 0.00023762681)
(0.00781215 0.0002109939 0.0002181603)
(0.0073950862 0.0002028236 0.00019646328)
(0.0070087986 0.00018827265 0.00017418493)
(0.006648835 0.00016968865 0.0001528463)
(0.0063142174 0.00014929331 0.00013312182)
(0.0060045996 0.00012875288 0.0001152379)
(0.0057192201 0.00010923291 9.9256791e-05)
(0.0054570682 9.149007e-05 8.514891e-05)
(0.0052170782 7.5923399e-05 7.2816211e-05)
(0.0049981259 6.2643331e-05 6.2119133e-05)
(0.0047989841 5.1561152e-05 5.2900048e-05)
(0.0046183234 4.2472278e-05 4.4997976e-05)
(0.0044547458 3.5118726e-05 3.8256897e-05)
(0.0043068267 2.9230544e-05 3.2530441e-05)
(0.0041731526 2.4550834e-05 2.7684339e-05)
(0.0040523509 2.084911e-05 2.3597361e-05)
(0.0039431142 1.7926912e-05 2.0161344e-05)
(0.0038442168 1.5618599e-05 1.7280681e-05)
(0.0037545253 1.3789363e-05 1.487153e-05)
(0.0036730042 1.2331757e-05 1.2860862e-05)
(0.0035987172 1.1161539e-05 1.1185211e-05)
(0.0035308246 1.0213366e-05 9.7889743e-06)
(0.0034685786 9.4380809e-06 8.6250714e-06)
(0.0034113173 8.7971268e-06 7.6543152e-06)
(0.0033584589 8.2627198e-06 6.8439401e-06)
(0.0033094933 7.8140814e-06 6.1664562e-06)
(0.0032639753 7.4348235e-06 5.5988458e-06)
(0.0032215172 7.1121291e-06 5.121928e-06)
(0.0031817817 6.8360963e-06 4.719728e-06)
(0.0031444758 6.5990208e-06 4.3789735e-06)
(0.0031093448 6.3947806e-06 4.0886808e-06)
(0.0030761678 6.2184052e-06 3.8397979e-06)
(0.0030447526 6.0657969e-06 3.624878e-06)
(0.003014932 5.9335283e-06 3.4378178e-06)
(0.0029865602 5.8186964e-06 3.2736172e-06)
(0.0029595097 5.7188198e-06 3.1282048e-06)
(0.002933669 5.6317504e-06 2.9982609e-06)
(0.0029089401 5.5556264e-06 2.8810969e-06)
(0.0028852364 5.4888244e-06 2.7745334e-06)
(0.0028624815 5.4299126e-06 2.67681e-06)
(0.0028406075 5.3776435e-06 2.5865054e-06)
(0.0028195538 5.3309234e-06 2.5024727e-06)
(0.0027992664 5.2888094e-06 2.4237889e-06)
(0.0027796963 5.2504813e-06 2.3497105e-06)
(0.0027607998 5.2152426e-06 2.2796375e-06)
(0.002742537 5.1824977e-06 2.2130838e-06)
(0.0027248716 5.1517652e-06 2.1496543e-06)
(0.0027077708 5.1226669e-06 2.0890235e-06)
(0.0026912041 5.0948962e-06 2.0309199e-06)
(0.0026751435 5.0680856e-06 1.9751369e-06)
(0.0026595636 5.0410665e-06 1.9215387e-06)
(0.0026444411 5.0142577e-06 1.8699663e-06)
(0.002629754 4.9880175e-06 1.8202511e-06)
(0.0026154815 4.9620726e-06 1.7722778e-06)
(0.0026016045 4.9361408e-06 1.7259601e-06)
(0.0025881054 4.9100849e-06 1.6812144e-06)
(0.0025749674 4.8838331e-06 1.6379652e-06)
(0.002562175 4.8573398e-06 1.5961451e-06)
(0.0025497136 4.8305799e-06 1.5556926e-06)
(0.0025375693 4.8035391e-06 1.5165483e-06)
(0.0025257292 4.7761757e-06 1.4786617e-06)
(0.002514181 4.7483846e-06 1.4419867e-06)
(0.0025029134 4.7202765e-06 1.4064837e-06)
(0.0024919153 4.691915e-06 1.3721024e-06)
(0.0024811765 4.6632897e-06 1.3387974e-06)
(0.002470687 4.634401e-06 1.3065294e-06)
(0.0024604377 4.6052675e-06 1.2752601e-06)
(0.0024504197 4.5759092e-06 1.2449542e-06)
(0.0024406247 4.5463463e-06 1.2155746e-06)
(0.0024310448 4.5166e-06 1.1870928e-06)
(0.0024216723 4.4866946e-06 1.1594723e-06)
(0.0024125001 4.4566516e-06 1.1326842e-06)
(0.0024035213 4.426489e-06 1.1066975e-06)
(0.0023947295 4.3962296e-06 1.0814831e-06)
(0.0023861184 4.3658894e-06 1.0570129e-06)
(0.0023776821 4.3354866e-06 1.0332589e-06)
(0.0023694149 4.3050331e-06 1.0101958e-06)
(0.0023613115 4.2745364e-06 9.8779515e-07)
(0.0023533667 4.2439933e-06 9.6602938e-07)
(0.0023455757 4.213397e-06 9.4487455e-07)
(0.0023379338 4.1827216e-06 9.2429834e-07)
(0.0023304365 4.151927e-06 9.0427559e-07)
(0.0023230798 4.1209542e-06 8.8477207e-07)
(0.0023158598 4.0897247e-06 8.6575289e-07)
(0.0023087726 4.0581554e-06 8.4717246e-07)
(0.002301815 4.026191e-06 8.2898067e-07)
(0.0022949838 3.9938774e-06 8.1110672e-07)
(0.0022882766 3.9615315e-06 7.9346351e-07)
(0.002281691 3.9300784e-06 7.7594405e-07)
(0.0022752261 3.9016926e-06 7.5847759e-07)
(0.002268882 3.8809395e-06 7.4124651e-07)
(0.0022626608 3.8766469e-06 7.2572653e-07)
(0.0022565686 3.9043047e-06 7.1958023e-07)
(0.0022506189 3.9866552e-06 7.5579981e-07)
(0.0022447715 4.1390998e-06 8.4931808e-07)
(0.002233564 4.283225e-06 2.4122112e-06)
(0.0094843561 6.6886586e-05 0.00022303624)
(0.0091549219 0.00011904886 0.00026838771)
(0.0087072816 0.00014772497 0.00025588053)
(0.0082191888 0.00015892952 0.00023765677)
(0.0077602858 0.00016026049 0.00021787143)
(0.0073412804 0.00015505102 0.00019586613)
(0.0069552494 0.00014481701 0.00017327438)
(0.0065978366 0.00013121474 0.00015165024)
(0.0062677954 0.00011592881 0.00013169211)
(0.0059642872 0.00010028521 0.0001136244)
(0.0056860598 8.5214431e-05 9.7497522e-05)
(0.0054316726 7.1330407e-05 8.3272195e-05)
(0.0051997008 5.8984297e-05 7.0844883e-05)
(0.0049887459 4.8311754e-05 6.0073373e-05)
(0.0047973943 3.9291583e-05 5.0798891e-05)
(0.0046242055 3.1804354e-05 4.2859902e-05)
(0.0044677269 2.5679087e-05 3.6099807e-05)
(0.0043265179 2.0725785e-05 3.0371291e-05)
(0.0041991724 1.6756345e-05 2.5538702e-05)
(0.004084339 1.3596838e-05 2.1479082e-05)
(0.0039807371 1.1093753e-05 1.8082323e-05)
(0.0038871692 9.1161638e-06 1.525079e-05)
(0.0038025288 7.5553804e-06 1.2898647e-05)
(0.003725804 6.3231331e-06 1.0950986e-05)
(0.0036560786 5.3488193e-06 9.3426777e-06)
(0.0035925304 4.5751812e-06 8.0166137e-06)
(0.0035344253 3.9620982e-06 6.9239482e-06)
(0.0034811131 3.4726258e-06 6.0250724e-06)
(0.0034320221 3.0815189e-06 5.2862635e-06)
(0.0033866501 2.7702763e-06 4.6792108e-06)
(0.0033445586 2.5236733e-06 4.1805208e-06)
(0.0033053662 2.3295852e-06 3.7707535e-06)
(0.0032687419 2.1784973e-06 3.433746e-06)
(0.0032343982 2.0629058e-06 3.1561116e-06)
(0.0032020863 1.976809e-06 2.9267976e-06)
(0.0031715907 1.915317e-06 2.7367034e-06)
(0.0031427248 1.8743795e-06 2.5783551e-06)
(0.0031153267 1.8506048e-06 2.4456287e-06)
(0.0030892563 1.8411247e-06 2.3335227e-06)
(0.0030643915 1.8434995e-06 2.2379667e-06)
(0.003040626 1.8556457e-06 2.155663e-06)
(0.0030178671 1.875782e-06 2.0839516e-06)
(0.0029960335 1.9023811e-06 2.0206943e-06)
(0.0029750538 1.9341333e-06 1.964182e-06)
(0.0029548648 1.9699152e-06 1.9130521e-06)
(0.0029354109 2.0087621e-06 1.8662276e-06)
(0.0029166424 2.0498574e-06 1.8228531e-06)
(0.0028985148 2.0925093e-06 1.7822571e-06)
(0.0028809886 2.1361377e-06 1.7439137e-06)
(0.0028640277 2.1802706e-06 1.7074097e-06)
(0.0028475999 2.2245508e-06 1.6724147e-06)
(0.0028316758 2.2687605e-06 1.6386564e-06)
(0.0028162284 2.3128943e-06 1.6058722e-06)
(0.0028012324 2.3570801e-06 1.5738239e-06)
(0.0027866658 2.3978722e-06 1.5431889e-06)
(0.0027725089 2.436234e-06 1.5136868e-06)
(0.0027587418 2.4734403e-06 1.4848878e-06)
(0.002745346 2.5095341e-06 1.4567013e-06)
(0.002732305 2.5443502e-06 1.4291163e-06)
(0.0027196032 2.5777729e-06 1.4021114e-06)
(0.0027072261 2.6097237e-06 1.3756626e-06)
(0.0026951602 2.6401657e-06 1.3497556e-06)
(0.0026833928 2.6690873e-06 1.3243751e-06)
(0.0026719116 2.6965043e-06 1.2995095e-06)
(0.0026607054 2.7223731e-06 1.2751537e-06)
(0.0026497635 2.7463549e-06 1.2513147e-06)
(0.002639076 2.7689079e-06 1.2279783e-06)
(0.0026286333 2.7901464e-06 1.2051291e-06)
(0.0026184262 2.8099937e-06 1.182761e-06)
(0.0026084461 2.8284316e-06 1.1608698e-06)
(0.0025986849 2.8454935e-06 1.139449e-06)
(0.0025891348 2.861218e-06 1.1184908e-06)
(0.0025797885 2.8756484e-06 1.0979864e-06)
(0.002570639 2.8888283e-06 1.0779287e-06)
(0.0025616795 2.9008052e-06 1.0583099e-06)
(0.0025529038 2.911619e-06 1.0391186e-06)
(0.0025443058 2.9213146e-06 1.0203482e-06)
(0.0025358796 2.9299313e-06 1.0019898e-06)
(0.0025276198 2.9375072e-06 9.8403176e-07)
(0.002519521 2.9440792e-06 9.6646533e-07)
(0.0025115783 2.9496807e-06 9.4927923e-07)
(0.0025037869 2.9543365e-06 9.3246098e-07)
(0.0024961421 2.9580675e-06 9.1599991e-07)
(0.0024886396 2.960882e-06 8.9988136e-07)
(0.0024812752 2.9627733e-06 8.8408486e-07)
(0.002474045 2.9637221e-06 8.6859347e-07)
(0.0024669452 2.9636887e-06 8.5338204e-07)
(0.0024599723 2.9626133e-06 8.3841523e-07)
(0.0024531231 2.9604303e-06 8.2364355e-07)
(0.0024463945 2.9570956e-06 8.0900361e-07)
(0.0024397839 2.9526506e-06 7.9439845e-07)
(0.0024332895 2.9473509e-06 7.7969392e-07)
(0.0024269099 2.9419131e-06 7.6470943e-07)
(0.0024206457 2.9379219e-06 7.4926005e-07)
(0.0024144993 2.9384174e-06 7.3336419e-07)
(0.0024084767 2.948495e-06 7.1826492e-07)
(0.0024025877 2.9751256e-06 7.1113336e-07)
(0.002396846 3.0234611e-06 7.4331336e-07)
(0.0023911946 3.0808308e-06 8.3046627e-07)
(0.0023803644 3.0574255e-06 2.2999437e-06)
(0.0094810492 4.4090135e-05 0.00022308885)
(0.0091422796 7.9975482e-05 0.00026874495)
(0.0086839084 0.00010160921 0.00025628771)
(0.0081880903 0.00011101591 0.00023793456)
(0.0077246858 0.00011275118 0.00021798622)
(0.0073029895 0.00010953687 0.00019578738)
(0.0069155191 0.00010266029 0.00017296032)
(0.0065579578 9.3267236e-05 0.0001510852)
(0.006229001 8.2539594e-05 0.00013089045)
(0.005927585 7.1446832e-05 0.00011261412)
(0.0056522063 6.0673359e-05 9.630924e-05)
(0.0054012005 5.0670808e-05 8.1936268e-05)
(0.0051729477 4.1706608e-05 6.9390832e-05)
(0.004965887 3.3898114e-05 5.8529097e-05)
(0.0047784814 2.7249954e-05 4.9189879e-05)
(0.0046092054 2.1693074e-05 4.1208774e-05)
(0.0044565535 1.7117438e-05 3.4426144e-05)
(0.0043190553 1.3395519e-05 2.8691659e-05)
(0.0041952917 1.0397813e-05 2.3866804e-05)
(0.0040839086 8.0023318e-06 1.9826011e-05)
(0.0039836292 6.0997695e-06 1.6456861e-05)
(0.0038932634 4.5956621e-06 1.3659715e-05)
(0.0038117126 3.4106733e-06 1.1347012e-05)
(0.0037379734 2.4799287e-06 9.4422914e-06)
(0.0036711359 1.7515116e-06 7.8790883e-06)
(0.0036103859 1.1749043e-06 6.6010327e-06)
(0.0035549935 7.2234089e-07 5.5561208e-06)
(0.0035043108 3.7342507e-07 4.7060696e-06)
(0.0034577717 1.0569646e-07 4.0163442e-06)
(0.0034148763 -9.9089112e-08 3.4574143e-06)
(0.0033751872 -2.533361e-07 3.0054951e-06)
(0.0033383243 -3.6640064e-07 2.6409748e-06)
(0.0033039576 -4.4577894e-07 2.3475735e-06)
(0.0032718009 -4.9748279e-07 2.1118268e-06)
(0.0032416065 -5.2634445e-07 1.9226425e-06)
(0.0032131599 -5.3630856e-07 1.770916e-06)
(0.0031862758 -5.3063989e-07 1.6492029e-06)
(0.0031607936 -5.1206296e-07 1.5514409e-06)
(0.0031365743 -4.8287146e-07 1.4727102e-06)
(0.0031134976 -4.4500647e-07 1.4090329e-06)
(0.0030914586 -4.0011119e-07 1.3572056e-06)
(0.0030703663 -3.4957905e-07 1.314657e-06)
(0.0030501409 -2.9459472e-07 1.2793313e-06)
(0.0030307129 -2.3616929e-07 1.2495913e-06)
(0.0030120207 -1.7516524e-07 1.2241406e-06)
(0.0029940105 -1.1232231e-07 1.2019533e-06)
(0.0029766343 -4.826771e-08 1.1822238e-06)
(0.0029598495 1.6450539e-08 1.164321e-06)
(0.0029436181 8.1356047e-08 1.1477512e-06)
(0.002927906 1.4602408e-07 1.1321239e-06)
(0.0029126825 2.100588e-07 1.1171187e-06)
(0.0028979201 2.7305007e-07 1.1024408e-06)
(0.0028835935 3.3454172e-07 1.0876613e-06)
(0.0028696773 3.9432542e-07 1.0722037e-06)
(0.0028561514 4.5705057e-07 1.0590087e-06)
(0.0028429997 5.2059961e-07 1.0472569e-06)
(0.0028302035 5.8225348e-07 1.0356069e-06)
(0.0028177449 6.4163793e-07 1.0238009e-06)
(0.0028056084 6.9901842e-07 1.0118747e-06)
(0.0027937799 7.545605e-07 9.9986882e-07)
(0.0027822461 8.0834945e-07 9.8781034e-07)
(0.0027709946 8.6046709e-07 9.7571897e-07)
(0.0027600137 9.1102531e-07 9.6360225e-07)
(0.0027492926 9.601955e-07 9.5144742e-07)
(0.0027388207 1.0080059e-06 9.3926819e-07)
(0.0027285887 1.0528493e-06 9.2746601e-07)
(0.0027185878 1.0958655e-06 9.1583037e-07)
(0.0027088089 1.1374994e-06 9.0425315e-07)
(0.0026992438 1.177768e-06 8.9275915e-07)
(0.0026898847 1.2166573e-06 8.8136667e-07)
(0.0026807244 1.2541695e-06 8.700801e-07)
(0.0026717559 1.2903134e-06 8.5890738e-07)
(0.0026629726 1.3251072e-06 8.4785305e-07)
(0.0026543682 1.3585732e-06 8.3692324e-07)
(0.0026459367 1.3907401e-06 8.2612134e-07)
(0.0026376723 1.4216349e-06 8.1545378e-07)
(0.0026295698 1.4512901e-06 8.049195e-07)
(0.0026216238 1.4797335e-06 7.9452277e-07)
(0.0026138294 1.5069921e-06 7.8426252e-07)
(0.002606182 1.5330934e-06 7.7414045e-07)
(0.0025986769 1.558063e-06 7.6415217e-07)
(0.0025913099 1.5819197e-06 7.5429502e-07)
(0.0025840769 1.6046807e-06 7.4456433e-07)
(0.0025769739 1.6263496e-06 7.3495338e-07)