/*--------------------------------*- C++ -*----------------------------------*\
  =========                 |
  \\      /  F ield         | OpenFOAM: The Open Source CFD Toolbox
   \\    /   O peration     | Website:  https://openfoam.org
    \\  /    A nd           | Version:  7
     \\/     M anipulation  |
\*---------------------------------------------------------------------------*/
FoamFile
{
    version     2.0;
    format      ascii;
    class       surfaceScalarField;
    location    "1350/water";
    object      phi;
}
// * * * * * * * * * * * * * * * * * * * * * * * * * * * * * * * * * * * * * //

dimensions      [1 0 -1 0 0 0 0];

internalField   nonuniform List<scalar> 
156660
(
9.9057239e-05
6.0010402e-06
6.0528092e-06
8.6847497e-05
6.0555113e-06
6.1542307e-06
7.5687891e-05
5.5111362e-06
5.6484701e-06
6.5441704e-05
5.0404181e-06
5.2057689e-06
5.6267661e-05
4.4956436e-06
4.6783992e-06
4.8318019e-05
3.8797648e-06
4.0698777e-06
4.1624776e-05
3.2524448e-06
3.4407982e-06
3.6124897e-05
2.660462e-06
2.839417e-06
3.1692235e-05
2.1345126e-06
2.2981489e-06
2.8162841e-05
1.6926975e-06
1.8366964e-06
2.5361437e-05
1.3399933e-06
1.4614113e-06
2.3124664e-05
1.0698477e-06
1.1669256e-06
2.1315127e-05
8.6875421e-07
9.4078225e-07
1.9825714e-05
7.2110065e-07
7.6831273e-07
1.8577278e-05
6.1248244e-07
6.3595306e-07
1.7513255e-05
5.312522e-07
5.3277149e-07
1.6593744e-05
4.6879723e-07
4.5071347e-07
1.5790433e-05
4.1913717e-07
3.841739e-07
1.5082784e-05
3.7829068e-07
3.293585e-07
1.4455417e-05
3.4367129e-07
2.8369565e-07
1.3896409e-05
3.1361409e-07
2.4539335e-07
1.339622e-05
2.8704447e-07
2.1314452e-07
1.2947015e-05
2.6326031e-07
1.859451e-07
1.2542237e-05
2.4179365e-07
1.6298461e-07
1.2176318e-05
2.2232206e-07
1.4359689e-07
1.1844484e-05
2.0461479e-07
1.2721881e-07
1.1542609e-05
1.8849495e-07
1.1337975e-07
1.1267116e-05
1.7381573e-07
1.0167796e-07
1.1014892e-05
1.6046274e-07
9.1760828e-08
1.0783252e-05
1.4833966e-07
8.33006e-08
1.0569851e-05
1.3734903e-07
7.6052132e-08
1.0372614e-05
1.273886e-07
6.9848331e-08
1.0189731e-05
1.183681e-07
6.4514844e-08
1.001963e-05
1.1020446e-07
5.9896635e-08
9.8609388e-06
1.0281918e-07
5.5871645e-08
9.7124594e-06
9.6137948e-08
5.2341365e-08
9.5731439e-06
9.009117e-08
4.9224315e-08
9.4420759e-06
8.4614457e-08
4.6453572e-08
9.3184531e-06
7.9648661e-08
4.3974122e-08
9.2015723e-06
7.5139719e-08
4.174107e-08
9.0908166e-06
7.1038173e-08
3.9717557e-08
8.9856432e-06
6.7301148e-08
3.7872295e-08
8.8855707e-06
6.389426e-08
3.6178156e-08
8.7901757e-06
6.0780116e-08
3.4614945e-08
8.6990829e-06
5.7926188e-08
3.3166685e-08
8.6119591e-06
5.5303729e-08
3.1820132e-08
8.5285072e-06
5.2887437e-08
3.0564421e-08
8.4484618e-06
5.0655049e-08
2.9390271e-08
8.3715848e-06
4.8587021e-08
2.8290012e-08
8.2976614e-06
4.6666178e-08
2.7257179e-08
8.2264975e-06
4.4877467e-08
2.6286414e-08
8.1579202e-06
4.320878e-08
2.5368523e-08
8.0917731e-06
4.1649057e-08
2.4498034e-08
8.0279108e-06
4.0187017e-08
2.3675375e-08
7.9662005e-06
3.8812704e-08
2.2897519e-08
7.9065219e-06
3.7518409e-08
2.2160224e-08
7.8487639e-06
3.6297874e-08
2.1460135e-08
7.7928241e-06
3.5145146e-08
2.0794603e-08
7.7386083e-06
3.4054661e-08
2.0161132e-08
7.6860293e-06
3.3021327e-08
1.9557659e-08
7.6350062e-06
3.2040804e-08
1.8982274e-08
7.5854641e-06
3.1109061e-08
1.8433056e-08
7.537333e-06
3.0222616e-08
1.7908498e-08
7.4905478e-06
2.9378263e-08
1.7407008e-08
7.4450476e-06
2.8573058e-08
1.6927187e-08
7.4007755e-06
2.7804253e-08
1.646778e-08
7.3576783e-06
2.7069612e-08
1.6027633e-08
7.3157056e-06
2.6367061e-08
1.5605632e-08
7.2748103e-06
2.5694672e-08
1.5200642e-08
7.2349479e-06
2.5050568e-08
1.4811818e-08
7.1960766e-06
2.4433109e-08
1.4438169e-08
7.158157e-06
2.3840691e-08
1.4078935e-08
7.1211518e-06
2.3271905e-08
1.3733291e-08
7.0850258e-06
2.2725509e-08
1.3400543e-08
7.0497456e-06
2.2200212e-08
1.307996e-08
7.0152798e-06
2.1694934e-08
1.2770891e-08
6.9815985e-06
2.1208578e-08
1.2472763e-08
6.9486733e-06
2.0740233e-08
1.2184928e-08
6.9164775e-06
2.028898e-08
1.190679e-08
6.8849857e-06
1.985395e-08
1.1637809e-08
6.8541739e-06
1.9434361e-08
1.1377444e-08
6.8240193e-06
1.9029484e-08
1.1125095e-08
6.7945006e-06
1.8638509e-08
1.0880233e-08
6.7655975e-06
1.8260771e-08
1.0642311e-08
6.7372912e-06
1.7895555e-08
1.0410763e-08
6.709564e-06
1.7542086e-08
1.0185061e-08
6.6823995e-06
1.7199619e-08
9.9648643e-09
6.6557824e-06
1.6867288e-08
9.7498142e-09
6.6296983e-06
1.6544112e-08
9.5399906e-09
6.6041331e-06
1.6229275e-08
9.3359914e-09
6.5790714e-06
1.5921967e-08
9.1396853e-09
6.554494e-06
1.5622313e-08
8.9550674e-09
6.5303708e-06
1.5332551e-08
8.7906517e-09
6.5066467e-06
1.5060461e-08
8.6636079e-09
6.4832094e-06
1.4827808e-08
8.6095134e-09
6.4598103e-06
1.469305e-08
8.7059953e-09
6.4358388e-06
1.4826409e-08
9.1451474e-09
6.4096302e-06
1.5741756e-08
1.0466742e-08
6.3782855e-06
1.8026565e-08
1.3318224e-08
3.2300225e-08
2.7923542e-08
0.00010646494
4.1872386e-06
6.4599816e-06
0.0001002019
5.695418e-06
6.6231353e-06
9.3659588e-05
5.7790389e-06
6.2744098e-06
8.7011589e-05
5.6514782e-06
6.0369387e-06
8.0422927e-05
5.366912e-06
5.7173941e-06
7.4094022e-05
4.9022832e-06
5.3063862e-06
6.8167026e-05
4.3278135e-06
4.8516272e-06
6.2722565e-05
3.717891e-06
4.387032e-06
5.7799049e-05
3.1243144e-06
3.9337145e-06
5.3403345e-05
2.5820689e-06
3.5063328e-06
4.9517402e-05
2.1121062e-06
3.1138299e-06
4.6105482e-05
1.7220197e-06
2.7597474e-06
4.3121558e-05
1.4089355e-06
2.4437429e-06
4.0515558e-05
1.1637552e-06
2.163346e-06
3.8237948e-05
9.748585e-07
1.9152336e-06
3.6242683e-05
8.3055976e-07
1.6959573e-06
3.4488759e-05
7.2043697e-07
1.5022849e-06
3.2940716e-05
6.3586298e-07
1.3313172e-06
3.1568463e-05
5.7005006e-07
1.1804931e-06
3.0346733e-05
5.1784899e-07
1.0475522e-06
2.9254398e-05
4.7545954e-07
9.3049034e-07
2.8273782e-05
4.4013955e-07
8.2752024e-07
2.7390054e-05
4.0994892e-07
7.3704008e-07
2.6590699e-05
3.8353955e-07
6.5760857e-07
2.5865102e-05
3.5998886e-07
5.8793073e-07
2.5204197e-05
3.3867631e-07
5.2684259e-07
2.4600205e-05
3.1918357e-07
4.7330347e-07
2.4046429e-05
3.0120192e-07
4.263902e-07
2.3537072e-05
2.8455206e-07
3.8526714e-07
2.3067119e-05
2.6911101e-07
3.4918238e-07
2.2632208e-05
2.5478166e-07
3.1747784e-07
2.2228528e-05
2.4147383e-07
2.8959533e-07
2.1852744e-05
2.2911074e-07
2.6504125e-07
2.1501947e-05
2.1762891e-07
2.4337257e-07
2.1173591e-05
2.0696952e-07
2.2420572e-07
2.0865444e-05
1.9707569e-07
2.0720868e-07
2.0575549e-05
1.8789253e-07
1.9209396e-07
2.0302183e-05
1.7936723e-07
1.7861342e-07
2.0043829e-05
1.7144914e-07
1.6655322e-07
1.979915e-05
1.6408984e-07
1.5572943e-07
1.956696e-05
1.5724384e-07
1.4598404e-07
1.934621e-05
1.5086894e-07
1.3718214e-07
1.9135969e-05
1.4492654e-07
1.2920883e-07
1.8935407e-05
1.3937907e-07
1.2196307e-07
1.8743783e-05
1.3419231e-07
1.1535763e-07
1.8560435e-05
1.2933511e-07
1.0931725e-07
1.8384766e-05
1.2477911e-07
1.0377715e-07
1.8216241e-05
1.2049851e-07
9.8681291e-08
1.8054377e-05
1.1647016e-07
9.3981304e-08
1.7898734e-05
1.1267293e-07
8.9635418e-08
1.7748917e-05
1.0908824e-07
8.5606999e-08
1.7604563e-05
1.0570005e-07
8.1862426e-08
1.7465345e-05
1.0249339e-07
7.8373261e-08
1.7330962e-05
9.9453e-08
7.511695e-08
1.7201138e-05
9.6564385e-08
7.2072693e-08
1.7075619e-05
9.3816654e-08
6.9221113e-08
1.695417e-05
9.1201086e-08
6.654509e-08
1.6836577e-05
8.8709099e-08
6.4029498e-08
1.6722638e-05
8.6331956e-08
6.1661013e-08
1.661217e-05
8.4061762e-08
5.9427684e-08
1.6505001e-05
8.1891509e-08
5.7318805e-08
1.640097e-05
7.981491e-08
5.5324845e-08
1.6299929e-05
7.7826143e-08
5.3437144e-08
1.620174e-05
7.5919849e-08
5.1647913e-08
1.6106272e-05
7.4091047e-08
4.9950141e-08
1.6013404e-05
7.2334987e-08
4.8337349e-08
1.5923022e-05
7.064774e-08
4.6803862e-08
1.5835019e-05
6.9025733e-08
4.5344252e-08
1.5749294e-05
6.7465535e-08
4.3953716e-08
1.5665753e-05
6.596378e-08
4.2627718e-08
1.5584307e-05
6.4517362e-08
4.1362143e-08
1.5504871e-05
6.3123412e-08
4.0153346e-08
1.5427365e-05
6.1779315e-08
3.8997778e-08
1.5351716e-05
6.0482528e-08
3.7892276e-08
1.5277852e-05
5.9230858e-08
3.6833883e-08
1.5205705e-05
5.8021998e-08
3.5819739e-08
1.5135212e-05
5.6854023e-08
3.4847367e-08
1.5066313e-05
5.5724992e-08
3.3914358e-08
1.499895e-05
5.4633148e-08
3.3018411e-08
1.493307e-05
5.357669e-08
3.2157396e-08
1.4868621e-05
5.2554175e-08
3.1329403e-08
1.4805554e-05
5.1563973e-08
3.0532444e-08
1.4743823e-05
5.0604498e-08
2.9764677e-08
1.4683386e-05
4.9674294e-08
2.9024359e-08
1.4624199e-05
4.8771812e-08
2.8309862e-08
1.4566226e-05
4.7895482e-08
2.7619544e-08
1.4509431e-05
4.704352e-08
2.6951955e-08
1.4453778e-05
4.6214116e-08
2.6305761e-08
1.4399237e-05
4.5405421e-08
2.5679878e-08
1.4345777e-05
4.4615694e-08
2.5073737e-08
1.4293367e-05
4.384425e-08
2.4487697e-08
1.4241972e-05
4.3092848e-08
2.3923753e-08
1.4191548e-05
4.2369876e-08
2.3387151e-08
1.4142019e-05
4.1699322e-08
2.2889634e-08
1.4093249e-05
4.1141586e-08
2.2456614e-08
1.4044951e-05
4.0844629e-08
2.214655e-08
1.3996485e-05
4.1169169e-08
2.2123048e-08
1.3946229e-05
4.3012278e-08
2.2985388e-08
1.389015e-05
4.8540249e-08
2.5565786e-08
6.328156e-08
5.0000861e-08
0.00010603565
2.7876425e-06
6.4750379e-06
0.00010074799
4.4145413e-06
6.5685292e-06
9.5493515e-05
4.8594028e-06
6.1741158e-06
9.0256432e-05
4.930369e-06
5.9581921e-06
8.5101366e-05
4.8311767e-06
5.6908011e-06
8.0102875e-05
4.5561761e-06
5.3445981e-06
7.5322251e-05
4.1469521e-06
4.9614853e-06
7.0803266e-05
3.6678925e-06
4.5689837e-06
6.6576264e-05
3.1701903e-06
4.1811255e-06
6.2660725e-05
2.6900109e-06
3.8075976e-06
5.9065443e-05
2.2519318e-06
3.4554566e-06
5.5788936e-05
1.8697304e-06
3.1287957e-06
5.2820978e-05
1.5477473e-06
2.8291458e-06
5.014479e-05
1.2836302e-06
2.5563139e-06
4.7739304e-05
1.07123e-06
2.3091141e-06
4.5581183e-05
9.0281502e-07
2.0858661e-06
4.3646423e-05
7.7048782e-07
1.884709e-06
4.1911533e-05
6.6697375e-07
1.7037793e-06
4.0354306e-05
5.8598198e-07
1.541295e-06
3.8954268e-05
5.2230221e-07
1.3955849e-06
3.769288e-05
4.7175604e-07
1.265091e-06
3.6553576e-05
4.3107985e-07
1.1483635e-06
3.552169e-05
3.9778206e-07
1.0440533e-06
3.4584322e-05
3.6999882e-07
9.5090829e-07
3.3730181e-05
3.4635984e-07
8.6777017e-07
3.2949411e-05
3.2587758e-07
7.9356868e-07
3.2233419e-05
3.0784048e-07
7.2733486e-07
3.1574711e-05
2.9172984e-07
6.6818105e-07
3.0966769e-05
2.7719267e-07
6.1530126e-07
3.0403928e-05
2.6398099e-07
5.6797018e-07
2.9881258e-05
2.5190846e-07
5.2554314e-07
2.9394455e-05
2.4082714e-07
4.8745e-07
2.8939761e-05
2.306216e-07
4.5318328e-07
2.8513895e-05
2.2120153e-07
4.2229388e-07
2.8113985e-05
2.1249196e-07
3.9438674e-07
2.7737518e-05
2.0442798e-07
3.6911489e-07
2.7382285e-05
1.9695193e-07
3.4617384e-07
2.7046344e-05
1.9001177e-07
3.252968e-07
2.6727982e-05
1.8355995e-07
3.0625043e-07
2.6425689e-05
1.7755278e-07
2.8883084e-07
2.6138123e-05
1.7195002e-07
2.7285983e-07
2.5864094e-05
1.6671517e-07
2.5818184e-07
2.5602546e-05
1.6181456e-07
2.4466094e-07
2.535253e-05
1.572171e-07
2.3217764e-07
2.51132e-05
1.5289443e-07
2.2062726e-07
2.4883797e-05
1.4882097e-07
2.099177e-07
2.4663634e-05
1.4497368e-07
1.9996809e-07
2.4452094e-05
1.4133183e-07
1.9070707e-07
2.4248615e-05
1.3787696e-07
1.8207153e-07
2.405269e-05
1.3459265e-07
1.7400572e-07
2.3863854e-05
1.314646e-07
1.6645991e-07
2.3681684e-05
1.2848058e-07
1.5938924e-07
2.3505794e-05
1.2562922e-07
1.5275406e-07
2.3335829e-05
1.228987e-07
1.4651966e-07
2.3171462e-05
1.2027639e-07
1.4065458e-07
2.3012394e-05
1.1775476e-07
1.3513021e-07
2.2858345e-05
1.1532973e-07
1.2992043e-07
2.2709057e-05
1.1299537e-07
1.2500175e-07
2.2564291e-05
1.1074518e-07
1.2035289e-07
2.2423824e-05
1.0857346e-07
1.1595459e-07
2.2287451e-05
1.0647547e-07
1.1178925e-07
2.2154978e-05
1.0444698e-07
1.078408e-07
2.2026226e-05
1.0248419e-07
1.040946e-07
2.1901025e-05
1.0058354e-07
1.0053716e-07
2.1779218e-05
9.8741552e-08
9.715614e-08
2.1660658e-05
9.6954895e-08
9.3940246e-08
2.1545205e-05
9.5221281e-08
9.0879052e-08
2.1432729e-05
9.3538813e-08
8.796279e-08
2.1323107e-05
9.1905306e-08
8.5182616e-08
2.1216222e-05
9.0318503e-08
8.2530186e-08
2.1111965e-05
8.8776381e-08
7.9997878e-08
2.1010233e-05
8.7277133e-08
7.7578634e-08
2.0910927e-05
8.5818971e-08
7.5265859e-08
2.0813956e-05
8.4400332e-08
7.3053447e-08
2.0719232e-05
8.3019694e-08
7.0935653e-08
2.0626671e-05
8.1675635e-08
6.8907224e-08
2.0536195e-05
8.036682e-08
6.6963119e-08
2.0447729e-05
7.9091973e-08
6.5098761e-08
2.0361203e-05
7.7849825e-08
6.330974e-08
2.0276548e-05
7.663924e-08
6.1592019e-08
2.0193702e-05
7.5459002e-08
5.9941763e-08
2.0112602e-05
7.4307974e-08
5.8355256e-08
2.0033193e-05
7.3184927e-08
5.6829069e-08
1.9955419e-05
7.208862e-08
5.5359972e-08
1.9879228e-05
7.1017641e-08
5.3944836e-08
1.9804572e-05
6.9970448e-08
5.2580723e-08
1.9731406e-05
6.8945263e-08
5.1264781e-08
1.9659685e-05
6.7940116e-08
4.9994389e-08
1.9589371e-05
6.6953036e-08
4.8767042e-08
1.9520423e-05
6.598237e-08
4.758054e-08
1.9452807e-05
6.5028055e-08
4.6433096e-08
1.9386482e-05
6.4094115e-08
4.5323742e-08
1.9321404e-05
6.3194665e-08
4.4253095e-08
1.9257511e-05
6.2366315e-08
4.3225248e-08
1.9194705e-05
6.1695159e-08
4.2253146e-08
1.9132798e-05
6.1374043e-08
4.1377406e-08
1.9071394e-05
6.1822391e-08
4.0750666e-08
1.9009424e-05
6.3924713e-08
4.1057595e-08
1.8944661e-05
6.9304697e-08
4.3998823e-08
7.917098e-08
7.4661531e-08
0.0001054937
1.9169872e-06
6.4880406e-06
0.00010005365
3.2729596e-06
6.5816334e-06
9.4926077e-05
3.8288995e-06
6.1580776e-06
8.9946373e-05
3.9838109e-06
5.9262629e-06
8.5163276e-05
3.9595077e-06
5.6547657e-06
8.0619137e-05
3.7899369e-06
5.3103784e-06
7.6329462e-05
3.5015547e-06
4.9350725e-06
7.230016e-05
3.1412013e-06
4.5559928e-06
6.8534206e-05
2.7514802e-06
4.1846641e-06
6.5032983e-05
2.3633493e-06
3.8278852e-06
6.1795789e-05
1.9984143e-06
3.490711e-06
5.8818843e-05
1.6703759e-06
3.176301e-06
5.6094717e-05
1.3858295e-06
2.886043e-06
5.3612488e-05
1.1457945e-06
2.6200649e-06
5.1358373e-05
9.4764115e-07
2.3777043e-06
4.9316593e-05
7.8676786e-07
2.1578272e-06
4.7470246e-05
6.5779547e-07
1.9590391e-06
4.5802069e-05
5.5532543e-07
1.7798252e-06
4.4295042e-05
4.7437116e-07
1.6186378e-06
4.293283e-05
4.1056665e-07
1.473948e-06
4.1700078e-05
3.6023233e-07
1.3442759e-06
4.0582591e-05
3.2035739e-07
1.2282094e-06
3.956742e-05
2.8853735e-07
1.1244154e-06
3.8642881e-05
2.6289066e-07
1.0316468e-06
3.7798527e-05
2.4196983e-07
9.4874401e-07
3.7025076e-05
2.2467704e-07
8.7465173e-07
3.6314324e-05
2.1018902e-07
8.084041e-07
3.5659057e-05
1.9788606e-07
7.4911043e-07
3.5052961e-05
1.8731584e-07
6.9597281e-07
3.4490519e-05
1.7814873e-07
6.4827381e-07
3.3966922e-05
1.7013172e-07
6.0537438e-07
3.3477973e-05
1.6306729e-07
5.6670866e-07
3.3020016e-05
1.5680298e-07
5.317754e-07
3.2589865e-05
1.5122053e-07
5.0013242e-07
3.218474e-05
1.4622562e-07
4.7139136e-07
3.1802215e-05
1.4174074e-07
4.4521234e-07
3.1440168e-05
1.3770099e-07
4.212981e-07
3.1096739e-05
1.3405097e-07
3.9938922e-07
3.0770297e-05
1.3074294e-07
3.7925954e-07
3.0459402e-05
1.2773513e-07
3.6071193e-07
3.0162787e-05
1.2499094e-07
3.4357477e-07
2.9879325e-05
1.2247784e-07
3.2769849e-07
2.960802e-05
1.2016735e-07
3.1295271e-07
2.934798e-05
1.1803379e-07
2.9922354e-07
2.9098408e-05
1.1605465e-07
2.8641139e-07
2.885859e-05
1.1420983e-07
2.7442906e-07
2.8627882e-05
1.1248191e-07
2.6319999e-07
2.8405701e-05
1.1085557e-07
2.5265685e-07
2.819152e-05
1.0931761e-07
2.4274023e-07
2.7984859e-05
1.0785649e-07
2.3339756e-07
2.7785279e-05
1.064628e-07
2.2458213e-07
2.7592378e-05
1.0512873e-07
2.1625212e-07
2.740579e-05
1.0384737e-07
2.0837032e-07
2.7225174e-05
1.0261119e-07
2.009036e-07
2.705022e-05
1.0140748e-07
1.9382255e-07
2.6880641e-05
1.0023386e-07
1.8710042e-07
2.6716166e-05
9.909235e-08
1.8071225e-07
2.6556546e-05
9.7980004e-08
1.7463559e-07
2.6401548e-05
9.6892525e-08
1.6885013e-07
2.6250957e-05
9.5827095e-08
1.6333741e-07
2.610457e-05
9.4781712e-08
1.5808044e-07
2.5962199e-05
9.3754736e-08
1.5306361e-07
2.5823666e-05
9.2744882e-08
1.4827259e-07
2.5688804e-05
9.1751019e-08
1.4369413e-07
2.5557458e-05
9.0771742e-08
1.3931597e-07
2.5429481e-05
8.9805189e-08
1.3512693e-07
2.5304734e-05
8.8851498e-08
1.3111646e-07
2.5183087e-05
8.7911234e-08
1.2727466e-07
2.5064416e-05
8.6983956e-08
1.2359242e-07
2.4948604e-05
8.6068925e-08
1.2006118e-07
2.4835542e-05
8.516578e-08
1.1667302e-07
2.4725124e-05
8.4274326e-08
1.1342046e-07
2.4617252e-05
8.3394273e-08
1.1029656e-07
2.4511832e-05
8.252547e-08
1.0729478e-07
2.4408775e-05
8.1667767e-08
1.0440902e-07
2.4307997e-05
8.0820986e-08
1.0163344e-07
2.4209416e-05
7.9985048e-08
9.8962628e-08
2.4112956e-05
7.9159739e-08
9.639154e-08
2.4018546e-05
7.8345046e-08
9.3915308e-08
2.3926115e-05
7.7540688e-08
9.1529329e-08
2.3835598e-05
7.6746542e-08
8.9229273e-08
2.3746933e-05
7.5962311e-08
8.7011038e-08
2.366006e-05
7.5187643e-08
8.4870709e-08
2.3574922e-05
7.4421959e-08
8.2804521e-08
2.3491466e-05
7.3664645e-08
8.0808924e-08
2.3409641e-05
7.2914663e-08
7.8880381e-08
2.33294e-05
7.2170703e-08
7.7015499e-08
2.3250698e-05
7.1431302e-08
7.5211e-08
2.3173493e-05
7.0694894e-08
7.3463636e-08
2.3097745e-05
6.9960241e-08
7.1770111e-08
2.3023418e-05
6.9227981e-08
7.0127041e-08
2.2950477e-05
6.8503526e-08
6.853121e-08
2.2878889e-05
6.7802889e-08
6.697971e-08
2.2808619e-05
6.7165048e-08
6.5471607e-08
2.2739625e-05
6.6675245e-08
6.4013354e-08
2.267185e-05
6.6507067e-08
6.264231e-08
2.2605149e-05
6.6990737e-08
6.1532379e-08
2.2538888e-05
6.8686039e-08
6.1499909e-08
2.2471121e-05
7.2226982e-08
6.4845139e-08
7.6722836e-08
9.8461312e-08
0.0001051979
1.3340884e-06
6.4961221e-06
9.9496561e-05
2.3731022e-06
6.6011947e-06
9.4262459e-05
2.9019223e-06
6.1610799e-06
8.9251186e-05
3.0856642e-06
5.9094196e-06
8.4493498e-05
3.0947347e-06
5.6224614e-06
8.0033635e-05
2.9846657e-06
5.265134e-06
7.5876907e-05
2.7790155e-06
4.8792667e-06
7.2014635e-05
2.5106844e-06
4.4927895e-06
6.8436293e-05
2.2128729e-06
4.1169489e-06
6.5131387e-05
1.9107259e-06
3.7575291e-06
6.208941e-05
1.621732e-06
3.4186596e-06
5.9299432e-05
1.3573877e-06
3.1029661e-06
5.6749589e-05
1.1240344e-06
2.8116387e-06
5.4426788e-05
9.2377944e-07
2.5448158e-06
5.2316754e-05
7.5572798e-07
2.3019466e-06
5.0404313e-05
6.1717853e-07
2.0820302e-06
4.8673788e-05
5.045435e-07
1.8837772e-06
4.7109414e-05
4.1397179e-07
1.7057274e-06
4.5695713e-05
3.4173649e-07
1.5463363e-06
4.4417792e-05
2.8445143e-07
1.4040359e-06
4.3261575e-05
2.3917111e-07
1.277278e-06
4.2213952e-05
2.0341502e-07
1.1645652e-06
4.1262871e-05
1.7514742e-07
1.0644719e-06
4.039737e-05
1.5273231e-07
9.7565898e-07
3.9607583e-05
1.3487528e-07
8.9688146e-07
3.8884688e-05
1.2055567e-07
8.270164e-07
3.8220848e-05
1.090109e-07
7.6501854e-07
3.7609155e-05
9.9633851e-08
7.0994486e-07
3.7043542e-05
9.1977449e-08
6.6095089e-07
3.6518702e-05
8.5705824e-08
6.1728288e-07
3.6030009e-05
8.0552379e-08
5.7827309e-07
3.5573433e-05
7.6308265e-08
5.4333414e-07
3.5145475e-05
7.281127e-08
5.1195029e-07
3.4743091e-05
6.9934124e-08
4.8367024e-07
3.4363641e-05
6.7575452e-08
4.5810063e-07
3.4004828e-05
6.5652882e-08
4.3489998e-07
3.3664659e-05
6.4098588e-08
4.137721e-07
3.3341393e-05
6.2855925e-08
3.9446095e-07
3.3033513e-05
6.1877014e-08
3.7674525e-07
3.2739693e-05
6.1121095e-08
3.6043426e-07
3.2458768e-05
6.0553102e-08
3.4536327e-07
3.2189712e-05
6.0142695e-08
3.3139054e-07
3.1931622e-05
5.986366e-08
3.1839376e-07
3.1683696e-05
5.9693118e-08
3.0626737e-07
3.1445219e-05
5.9611205e-08
2.9492012e-07
3.1215555e-05
5.960065e-08
2.8427318e-07
3.0994132e-05
5.9646524e-08
2.7425805e-07
3.0780436e-05
5.9736194e-08
2.6481541e-07
3.0574002e-05
5.9858653e-08
2.5589333e-07
3.0374407e-05
6.0004934e-08
2.4744662e-07
3.0181267e-05
6.0167667e-08
2.3943548e-07
2.9994229e-05
6.0341293e-08
2.3182485e-07
2.9812971e-05
6.0521823e-08
2.2458371e-07
2.9637193e-05
6.0704474e-08
2.1768453e-07
2.9466629e-05
6.0867297e-08
2.1110456e-07
2.9301024e-05
6.1016971e-08
2.048218e-07
2.914014e-05
6.1160891e-08
1.988157e-07
2.8983756e-05
6.1294951e-08
1.9306838e-07
2.8831669e-05
6.1415483e-08
1.875639e-07
2.8683688e-05
6.1520945e-08
1.8228762e-07
2.8539633e-05
6.1610556e-08
1.7722634e-07
2.8399336e-05
6.1683768e-08
1.7236783e-07
2.8262639e-05
6.1740471e-08
1.677009e-07
2.8129394e-05
6.1780691e-08
1.6321519e-07
2.7999461e-05
6.1803874e-08
1.5890119e-07
2.7872709e-05
6.1807373e-08
1.5475037e-07
2.7749012e-05
6.1793562e-08
1.5075442e-07
2.7628253e-05
6.1764819e-08
1.4690556e-07
2.7510319e-05
6.1721012e-08
1.4319659e-07
2.7395105e-05
6.1662116e-08
1.3962084e-07
2.728251e-05
6.1588631e-08
1.36172e-07
2.7172439e-05
6.1501085e-08
1.328442e-07
2.7064802e-05
6.1399954e-08
1.2963192e-07
2.6959511e-05
6.1285977e-08
1.2652991e-07
2.6856486e-05
6.1159515e-08
1.2353324e-07
2.6755649e-05
6.1021296e-08
1.206373e-07
2.6656924e-05
6.0871867e-08
1.1783765e-07
2.6560242e-05
6.071171e-08
1.1513013e-07
2.6465535e-05
6.0541365e-08
1.1251076e-07
2.6372738e-05
6.0361327e-08
1.0997578e-07
2.6281791e-05
6.0171929e-08
1.075216e-07
2.6192636e-05
5.9973539e-08
1.0514472e-07
2.6105215e-05
5.976631e-08
1.0284182e-07
2.6019477e-05
5.9550252e-08
1.0060973e-07
2.5935371e-05
5.9325135e-08
9.8445261e-08
2.585285e-05
5.9090505e-08
9.6345421e-08
2.5771868e-05
5.8845499e-08
9.430694e-08
2.5692384e-05
5.858899e-08
9.2326751e-08
2.5614357e-05
5.8319793e-08
9.0401431e-08
2.5537753e-05
5.8037063e-08
8.8527353e-08
2.5462539e-05
5.7741635e-08
8.6700223e-08
2.5388689e-05
5.7438414e-08
8.491519e-08
2.5316184e-05
5.714142e-08
8.3166626e-08
2.5245017e-05
5.6882571e-08
8.1449661e-08
2.51752e-05
5.672603e-08
7.9765793e-08
2.510677e-05
5.6787902e-08
7.8149182e-08
2.5039729e-05
5.7251601e-08
7.6780984e-08
2.4973573e-05
5.8330932e-08
7.651023e-08
2.4906079e-05
5.9989463e-08
7.9732197e-08
6.0715006e-08
1.1287823e-07
0.00010503672
9.0789372e-07
6.5005614e-06
9.9140653e-05
1.6524914e-06
6.6166802e-06
9.3788329e-05
2.0825241e-06
6.1717217e-06
8.8708526e-05
2.2549373e-06
5.91053e-06
8.3909682e-05
2.278404e-06
5.6151748e-06
7.9437109e-05
2.2074821e-06
5.2497564e-06
7.5296201e-05
2.0645348e-06
4.8553893e-06
7.1474034e-05
1.8722543e-06
4.460597e-06
6.7955013e-05
1.6547667e-06
4.0771269e-06
6.4723621e-05
1.4313505e-06
3.7107669e-06
6.1764423e-05
1.2154297e-06
3.3655007e-06
5.9062056e-05
1.015864e-06
3.0438911e-06
5.6601108e-05
8.378274e-07
2.7471548e-06
5.4365944e-05
6.8344647e-07
2.475497e-06
5.2340648e-05
5.5258526e-07
2.2284383e-06
5.0509125e-05
4.4366549e-07
2.0050361e-06
4.8855299e-05
3.5433457e-07
1.8040351e-06
4.7363353e-05
2.8193589e-07
1.6239821e-06
4.6017963e-05
2.2381344e-07
1.4633127e-06
4.4804502e-05
1.7749379e-07
1.3204181e-06
4.3709199e-05
1.4078085e-07
1.1936935e-06
4.2719248e-05
1.1179155e-07
1.081575e-06
4.1822875e-05
8.895452e-08
9.8256582e-07
4.1009364e-05
7.0987969e-08
8.9525473e-07
4.0269054e-05
5.6861808e-08
8.1832384e-07
3.9593306e-05
4.5719114e-08
7.5058475e-07
3.8974405e-05
3.6977842e-08
6.9093436e-07
3.8405585e-05
3.0067347e-08
6.3838632e-07
3.7880869e-05
2.4650831e-08
5.9204239e-07
3.7395029e-05
2.0440014e-08
5.5110606e-07
3.6943514e-05
1.7190318e-08
5.1487714e-07
3.6522366e-05
1.4716758e-08
4.8273957e-07
3.6128148e-05
1.2874759e-08
4.5415392e-07
3.5757883e-05
1.1549882e-08
4.2864943e-07
3.5408991e-05
1.0650762e-08
4.0581704e-07
3.5079238e-05
1.0103608e-08
3.8530229e-07
3.4766689e-05
9.8482563e-09
3.6679879e-07
3.4469668e-05
9.8350876e-09
3.5004234e-07
3.4186716e-05
1.0022915e-08
3.3480551e-07
3.3916567e-05
1.0377016e-08
3.2089288e-07
3.3658116e-05
1.0868051e-08
3.0813657e-07
3.3410395e-05
1.1470976e-08
2.9639281e-07
3.3172556e-05
1.2164229e-08
2.8553826e-07
3.2943852e-05
1.2929313e-08
2.7546718e-07
3.2723625e-05
1.3750174e-08
2.6608891e-07
3.2511286e-05
1.4613082e-08
2.5732569e-07
3.2306316e-05
1.5506242e-08
2.4911066e-07
3.2108246e-05
1.6419596e-08
2.4138622e-07
3.1916658e-05
1.734464e-08
2.341027e-07
3.1731171e-05
1.8274327e-08
2.2721713e-07
3.1551444e-05
1.9203169e-08
2.2069214e-07
3.1377162e-05
2.0127747e-08
2.1449508e-07
3.1208038e-05
2.104869e-08
2.0859679e-07
3.10438e-05
2.1972809e-08
2.0297055e-07
3.0884232e-05
2.2827865e-08
1.9760738e-07
3.0729103e-05
2.3663015e-08
1.9248229e-07
3.05782e-05
2.4489994e-08
1.8757384e-07
3.0431331e-05
2.5296313e-08
1.8286763e-07
3.0288318e-05
2.6077983e-08
1.7835077e-07
3.0148994e-05
2.6834281e-08
1.7401106e-07
3.0013202e-05
2.7564658e-08
1.6983755e-07
2.9880797e-05
2.8268967e-08
1.6582025e-07
2.975164e-05
2.894746e-08
1.6195014e-07
2.96256e-05
2.9600801e-08
1.5821897e-07
2.9502557e-05
3.022856e-08
1.5461922e-07
2.9382396e-05
3.0823609e-08
1.5114465e-07
2.9265007e-05
3.1393117e-08
1.4778876e-07
2.9150287e-05
3.1939583e-08
1.4454534e-07
2.9038137e-05
3.2461869e-08
1.4140896e-07
2.8928465e-05
3.2960091e-08
1.3837461e-07
2.8821181e-05
3.3434736e-08
1.3543752e-07
2.8716203e-05
3.3886334e-08
1.325933e-07
2.8613449e-05
3.4315547e-08
1.2983787e-07
2.8512845e-05
3.472288e-08
1.2716735e-07
2.8414317e-05
3.5108973e-08
1.2457816e-07
2.8317797e-05
3.5474467e-08
1.220668e-07
2.8223219e-05
3.5819909e-08
1.1963006e-07
2.813052e-05
3.6145911e-08
1.1726494e-07
2.803964e-05
3.6453034e-08
1.149684e-07
2.7950522e-05
3.6741864e-08
1.1273772e-07
2.7863111e-05
3.7012809e-08
1.1057028e-07
2.7777355e-05
3.7266234e-08
1.0846346e-07
2.7693204e-05
3.7502456e-08
1.0641475e-07
2.761061e-05
3.7721615e-08
1.0442175e-07
2.752953e-05
3.792358e-08
1.0248203e-07
2.744992e-05
3.8107988e-08
1.0059307e-07
2.7371738e-05
3.8274307e-08
9.8752309e-08
2.7294949e-05
3.8421554e-08
9.6956919e-08
2.7219516e-05
3.8548711e-08
9.5203607e-08
2.714541e-05
3.8655097e-08
9.3488605e-08
2.7072603e-05
3.8741119e-08
9.1806939e-08
2.7001079e-05
3.8810245e-08
9.0152346e-08
2.6930832e-05
3.8872138e-08
8.8516576e-08
2.6861876e-05
3.8947403e-08
8.6890555e-08
2.679426e-05
3.9073546e-08
8.5269201e-08
2.6728065e-05
3.9307001e-08
8.3675924e-08
2.6663337e-05
3.9708366e-08
8.2271173e-08
2.659956e-05
4.0272025e-08
8.1836208e-08
2.6534295e-05
4.0698044e-08
8.4555749e-08
3.9620849e-08
1.1507133e-07
0.00010494757
5.681108e-07
6.5033076e-06
9.8925416e-05
1.0462983e-06
6.6283516e-06
9.3480449e-05
1.3439845e-06
6.1835065e-06
8.8341777e-05
1.4751324e-06
5.9184762e-06
8.3502084e-05
1.4993912e-06
5.6187065e-06
7.9004057e-05
1.4572411e-06
5.2482679e-06
7.4853978e-05
1.3667382e-06
4.8478757e-06
7.1037378e-05
1.2423973e-06
4.4464569e-06
6.7536063e-05
1.0997693e-06
4.0563127e-06
6.4331998e-05
9.519236e-07
3.683491e-06
6.1407318e-05
8.0805757e-07
3.3320524e-06
5.8744339e-05
6.7422201e-07
3.0046209e-06
5.6325632e-05
5.5404397e-07
2.7024907e-06
5.4133973e-05
4.4916746e-07
2.4259382e-06
5.2152298e-05
3.5972399e-07
2.174536e-06
5.0363747e-05
2.8484513e-07
1.9473718e-06
4.875178e-05
2.2310006e-07
1.7432015e-06
4.7300339e-05
1.7281166e-07
1.5605647e-06
4.5994012e-05
1.3226572e-07
1.3978748e-06
4.4818177e-05
9.983999e-08
1.2534891e-06
4.3759121e-05
7.4075581e-08
1.1257614e-06
4.2804123e-05
5.3707594e-08
1.0130814e-06
4.1941503e-05
3.7671178e-08
9.1390374e-07
4.1160627e-05
2.5096457e-08
8.267673e-07
4.0451891e-05
1.5294135e-08
7.5030391e-07
3.980679e-05
7.5281352e-09
6.8329175e-07
3.9217543e-05
1.6727448e-09
6.2455204e-07
3.8677513e-05
-3.0330821e-09
5.7313081e-07
3.8180739e-05
-6.6486769e-09
5.2807353e-07
3.7722004e-05
-9.3594851e-09
4.885345e-07
3.7296777e-05
-1.13718e-08
4.5378928e-07
3.6901112e-05
-1.2818223e-08
4.2319915e-07
3.6531588e-05
-1.3805284e-08
3.9620482e-07
3.6185236e-05
-1.4417465e-08
3.7231876e-07
3.5859491e-05
-1.4721892e-08
3.5111777e-07
3.5552132e-05
-1.4772662e-08
3.3223578e-07
3.5261237e-05
-1.4613927e-08
3.1535731e-07
3.4985143e-05
-1.4282193e-08
3.002109e-07
3.472241e-05
-1.3807684e-08
2.8656374e-07
3.4471787e-05
-1.3215867e-08
2.7421626e-07
3.4232185e-05
-1.252818e-08
2.6299767e-07
3.4002657e-05
-1.1762811e-08
2.5276172e-07
3.3782373e-05
-1.0935221e-08
2.4338335e-07
3.3570606e-05
-1.0058758e-08
2.3475556e-07
3.3366714e-05
-9.1447238e-09
2.2678672e-07
3.3170131e-05
-8.2028361e-09
2.1939832e-07
3.2980356e-05
-7.2412293e-09
2.1252299e-07
3.279694e-05
-6.2668872e-09
2.0610283e-07
3.2619482e-05
-5.2855658e-09
2.0008786e-07
3.2447623e-05
-4.3018178e-09
1.9443478e-07
3.228104e-05
-3.3190234e-09
1.8910587e-07
3.2119438e-05
-2.338323e-09
1.8406734e-07
3.1962554e-05
-1.3530198e-09
1.7928647e-07
3.1810075e-05
-2.7627657e-10
1.7472764e-07
3.1661878e-05
5.8582872e-10
1.7043903e-07
3.1517732e-05
1.4356123e-09
1.6637296e-07
3.1377429e-05
2.3038426e-09
1.6248959e-07
3.1240792e-05
3.1586484e-09
1.5877484e-07
3.1107656e-05
3.9969825e-09
1.5521719e-07
3.0977867e-05
4.8171583e-09
1.5180549e-07
3.0851284e-05
5.6179407e-09
1.4852969e-07
3.0727774e-05
6.3990586e-09
1.4538077e-07
3.0607209e-05
7.1609515e-09
1.4235054e-07
3.0489473e-05
7.9059142e-09
1.3943123e-07
3.037445e-05
8.6357654e-09
1.366158e-07
3.0262049e-05
9.3206557e-09
1.3390396e-07
3.0152163e-05
9.993825e-09
1.3128567e-07
3.0044697e-05
1.06504e-08
1.2875514e-07
2.9939564e-05
1.1286763e-08
1.2630827e-07
2.983668e-05
1.1903212e-08
1.2394086e-07
2.9735965e-05
1.2500176e-08
1.2164885e-07
2.9637345e-05
1.3077883e-08
1.1942846e-07
2.9540748e-05
1.3636725e-08
1.1727621e-07
2.9446105e-05
1.4177001e-08
1.1518884e-07
2.9353352e-05
1.469918e-08
1.131634e-07
2.9262425e-05
1.5203512e-08
1.1119701e-07
2.9173268e-05
1.5690492e-08
1.0928706e-07
2.9085822e-05
1.6160415e-08
1.0743107e-07
2.9000035e-05
1.6613596e-08
1.0562664e-07
2.8915855e-05
1.7050402e-08
1.0387157e-07
2.8833233e-05
1.7471122e-08
1.0216363e-07
2.8752123e-05
1.7875959e-08
1.0050083e-07
2.8672479e-05
1.8265094e-08
9.8881124e-08
2.8594259e-05
1.8638574e-08
9.7302495e-08
2.8517424e-05
1.899625e-08
9.5762951e-08
2.8441934e-05
1.9337815e-08
9.4260358e-08
2.8367753e-05
1.9662816e-08
9.2792347e-08
2.8294848e-05
1.9970503e-08
9.1356279e-08
2.8223187e-05
2.0260038e-08
8.9948868e-08
2.8152746e-05
2.0530725e-08
8.8565939e-08
2.8083503e-05
2.0782601e-08
8.7201809e-08
2.8015447e-05
2.1017516e-08
8.5848662e-08
2.7948582e-05
2.1240714e-08
8.4495833e-08
2.7882937e-05
2.1462736e-08
8.3129531e-08
2.7818575e-05
2.169999e-08
8.1736545e-08
2.7755588e-05
2.1969286e-08
8.0324372e-08
2.7694014e-05
2.2266192e-08
7.9016077e-08
2.7633299e-05
2.2506283e-08
7.8480682e-08
2.7571004e-05
2.239342e-08
8.0599464e-08
2.0993106e-08
1.0779947e-07
0.00010489986
2.7443376e-07
6.5049155e-06
9.8802772e-05
5.0716634e-07
6.6362235e-06
9.329591e-05
6.5854978e-07
6.1922972e-06
8.8116302e-05
7.2902548e-07
5.9257147e-06
8.3248198e-05