/*--------------------------------*- C++ -*----------------------------------*\
  =========                 |
  \\      /  F ield         | OpenFOAM: The Open Source CFD Toolbox
   \\    /   O peration     | Website:  https://openfoam.org
    \\  /    A nd           | Version:  7
     \\/     M anipulation  |
\*---------------------------------------------------------------------------*/
FoamFile
{
    version     2.0;
    format      ascii;
    class       volVectorField;
    location    "1350/water";
    object      U;
}
// * * * * * * * * * * * * * * * * * * * * * * * * * * * * * * * * * * * * * //

dimensions      [0 1 -1 0 0 0 0];

internalField   nonuniform List<vector> 
54000
(
(0.0090020934 0.00020305973 0.00020444027)
(0.0083186447 0.00023622738 0.00023904411)
(0.0073695241 0.00021363852 0.00021763527)
(0.0063566114 0.00018488016 0.00018965819)
(0.0054486673 0.00015530835 0.00016048633)
(0.0046741594 0.00012529952 0.00013052937)
(0.0040193038 9.7052611e-05 0.00010203017)
(0.0034740067 7.2578999e-05 7.7073288e-05)
(0.0030302461 5.2876126e-05 5.6738329e-05)
(0.0026757323 3.8068151e-05 4.1216512e-05)
(0.0023947254 2.7637704e-05 3.003714e-05)
(0.0021713898 2.0689035e-05 2.2336508e-05)
(0.0019919695 1.6236162e-05 1.7152703e-05)
(0.0018455015 1.3416236e-05 1.3643172e-05)
(0.0017237326 1.1582489e-05 1.1179122e-05)
(0.0016206928 1.0304892e-05 9.345581e-06)
(0.0015321593 9.3257905e-06 7.8957154e-06)
(0.0014551546 8.5052961e-06 6.6953117e-06)
(0.0013875459 7.7746331e-06 5.6760581e-06)
(0.0013277612 7.1034288e-06 4.8034868e-06)
(0.001274601 6.4798503e-06 4.0581569e-06)
(0.0012271179 5.8999452e-06 3.4261577e-06)
(0.0011845424 5.3625302e-06 2.8950714e-06)
(0.001146235 4.8670208e-06 2.4526297e-06)
(0.0011116558 4.4125991e-06 2.0869762e-06)
(0.0010803434 3.9980126e-06 1.7867452e-06)
(0.0010519002 3.62146e-06 1.5416128e-06)
(0.0010259819 3.2805934e-06 1.3421858e-06)
(0.001002289 2.9733961e-06 1.1797305e-06)
(0.00098056199 2.697949e-06 1.0463198e-06)
(0.00096057572 2.4519206e-06 9.3658922e-07)
(0.00094213242 2.2325658e-06 8.4693405e-07)
(0.00092505792 2.0373873e-06 7.7316635e-07)
(0.00090920047 1.864089e-06 7.1184238e-07)
(0.00089442818 1.7104615e-06 6.6046688e-07)
(0.0008806259 1.5743822e-06 6.1707382e-07)
(0.00086769295 1.4538612e-06 5.800523e-07)
(0.00085554128 1.3470707e-06 5.4811487e-07)
(0.00084409387 1.2523496e-06 5.2023903e-07)
(0.00083328322 1.1681987e-06 4.9562777e-07)
(0.00082305015 1.0932621e-06 4.7365316e-07)
(0.00081334267 1.0262299e-06 4.5378261e-07)
(0.00080411486 9.6585924e-07 4.3554478e-07)
(0.00079532615 9.113113e-07 4.1865081e-07)
(0.0007869407 8.6191754e-07 4.0290806e-07)
(0.00077892675 8.1708306e-07 3.8816841e-07)
(0.00077125603 7.7627654e-07 3.7432136e-07)
(0.0007639033 7.3902551e-07 3.6127578e-07)
(0.00075684598 7.049139e-07 3.4896374e-07)
(0.00075006373 6.7357516e-07 3.3733051e-07)
(0.00074353821 6.4469385e-07 3.2633671e-07)
(0.00073725294 6.1802551e-07 3.1581825e-07)
(0.00073119314 5.9334807e-07 3.0574365e-07)
(0.00072534528 5.7042023e-07 2.962118e-07)
(0.00071969687 5.4902549e-07 2.8716604e-07)
(0.00071423653 5.2901491e-07 2.7854301e-07)
(0.00070895386 5.1027402e-07 2.7031096e-07)
(0.00070383928 4.9268699e-07 2.6244881e-07)
(0.00069888397 4.7614468e-07 2.5493157e-07)
(0.00069407976 4.60549e-07 2.4774255e-07)
(0.00068941911 4.4582055e-07 2.408645e-07)
(0.00068489502 4.3188475e-07 2.3427585e-07)
(0.00068050098 4.1867944e-07 2.2796436e-07)
(0.00067623091 4.0614741e-07 2.2191224e-07)
(0.00067207915 3.9423651e-07 2.1610516e-07)
(0.00066804042 3.8289778e-07 2.105308e-07)
(0.00066410976 3.7209515e-07 2.051775e-07)
(0.00066028251 3.6179437e-07 2.0003276e-07)
(0.00065655429 3.5196321e-07 1.950817e-07)
(0.00065292099 3.4256953e-07 1.9031771e-07)
(0.00064937872 3.3358685e-07 1.8572806e-07)
(0.00064592384 3.2498821e-07 1.8130576e-07)
(0.00064255288 3.1675103e-07 1.7704076e-07)
(0.00063926261 3.0885648e-07 1.7292575e-07)
(0.00063604992 3.0128277e-07 1.689516e-07)
(0.00063291192 2.9401351e-07 1.6511091e-07)
(0.00062984583 2.870308e-07 1.6139779e-07)
(0.00062684904 2.8032137e-07 1.5780346e-07)
(0.00062391907 2.7387091e-07 1.5432013e-07)
(0.00062105358 2.676656e-07 1.5094156e-07)
(0.00061825035 2.6169422e-07 1.476607e-07)
(0.00061550727 2.5594612e-07 1.4446898e-07)
(0.00061282235 2.5040745e-07 1.4135926e-07)
(0.00061019373 2.4506889e-07 1.3832436e-07)
(0.00060761964 2.3991941e-07 1.3535633e-07)
(0.00060509845 2.3494561e-07 1.324479e-07)
(0.00060262863 2.3013476e-07 1.2959798e-07)
(0.00060020873 2.2547027e-07 1.2680407e-07)
(0.00059783744 2.2093123e-07 1.2407553e-07)
(0.00059551348 2.1649887e-07 1.2143344e-07)
(0.00059323555 2.1214883e-07 1.1892926e-07)
(0.00059100214 2.0787135e-07 1.1666157e-07)
(0.00058881114 2.0369062e-07 1.1482973e-07)
(0.00058665898 1.9973129e-07 1.1382033e-07)
(0.0005845387 1.963842e-07 1.1441063e-07)
(0.00058243502 1.9487189e-07 1.1837264e-07)
(0.00058031396 1.9977468e-07 1.3094406e-07)
(0.0005781161 2.2258499e-07 1.6397607e-07)
(0.00057566369 1.970692e-07 1.5080618e-07)
(0.00056906201 7.8896447e-07 7.5322557e-07)
(0.0095316863 0.0003313754 0.00022336697)
(0.0092716504 0.00041105943 0.00027052342)
(0.0087756651 0.00040317187 0.00026060062)
(0.0081527518 0.00038218754 0.00024252081)
(0.0075302151 0.00035309574 0.00022101124)
(0.0069425889 0.00031541062 0.00019648834)
(0.006391209 0.00027309198 0.00017102969)
(0.0058791845 0.00023030694 0.00014652546)
(0.0054120202 0.00019001855 0.00012410997)
(0.0049926512 0.00015423459 0.00010436627)
(0.004620592 0.00012408347 8.7479017e-05)
(0.0042931332 9.9809403e-05 7.3327496e-05)
(0.0040063965 8.0956424e-05 6.1601503e-05)
(0.0037559538 6.667221e-05 5.1918794e-05)
(0.0035372541 5.59858e-05 4.3907444e-05)
(0.003345947 4.7992056e-05 3.7246645e-05)
(0.0031780884 4.194171e-05 3.1677529e-05)
(0.0030302311 3.7262447e-05 2.6997921e-05)
(0.0028994324 3.3540996e-05 2.3051138e-05)
(0.0027832152 3.0490245e-05 1.9714594e-05)
(0.0026795075 2.7915735e-05 1.6890544e-05)
(0.0025865783 2.568784e-05 1.4499383e-05)
(0.002502978 2.3720892e-05 1.2475015e-05)
(0.0024274871 2.195843e-05 1.0761725e-05)
(0.0023590736 2.0362992e-05 9.3122325e-06)
(0.0022968589 1.8909453e-05 8.0861281e-06)
(0.0022400906 1.7580767e-05 7.048962e-06)
(0.0021881216 1.6364898e-05 6.1714985e-06)
(0.0021403932 1.5251964e-05 5.4283133e-06)
(0.0020964214 1.4233849e-05 4.7973496e-06)
(0.0020557868 1.330304e-05 4.2604812e-06)
(0.0020181236 1.2451985e-05 3.8027039e-06)
(0.0019831119 1.1673909e-05 3.4109609e-06)
(0.0019504718 1.0962754e-05 3.0744205e-06)
(0.0019199589 1.0312853e-05 2.7842602e-06)
(0.0018913593 9.7188337e-06 2.5331803e-06)
(0.0018644851 9.1756444e-06 2.3150731e-06)
(0.0018391716 8.6785719e-06 2.1248308e-06)
(0.0018152735 8.2232439e-06 1.9581834e-06)
(0.001792663 7.8056213e-06 1.8115678e-06)
(0.0017712268 7.421999e-06 1.6820114e-06)
(0.001750865 7.0689375e-06 1.5670691e-06)
(0.0017314886 6.7432694e-06 1.4647431e-06)
(0.0017130186 6.4422736e-06 1.3732755e-06)
(0.0016953848 6.1635577e-06 1.2911593e-06)
(0.0016785241 5.9049784e-06 1.2171188e-06)
(0.00166238 5.6646104e-06 1.1500838e-06)
(0.0016469019 5.4407242e-06 1.0891491e-06)
(0.001632044 5.2317776e-06 1.0335528e-06)
(0.0016177648 5.0363845e-06 9.8265408e-07)
(0.0016040271 4.853323e-06 9.3589406e-07)
(0.0015907965 4.6815626e-06 8.9273787e-07)
(0.0015780424 4.5201576e-06 8.5278643e-07)
(0.0015657364 4.368155e-06 8.1576897e-07)
(0.0015538526 4.2246827e-06 7.8138386e-07)
(0.0015423672 4.0890606e-06 7.4934398e-07)
(0.0015312583 3.9607285e-06 7.1941204e-07)
(0.0015205058 3.8391513e-06 6.913861e-07)
(0.0015100909 3.7238124e-06 6.6509297e-07)
(0.0014999963 3.6142425e-06 6.4037922e-07)
(0.0014902061 3.5100291e-06 6.1710818e-07)
(0.0014807053 3.410798e-06 5.9516063e-07)
(0.00147148 3.3162115e-06 5.744283e-07)
(0.0014625175 3.2259598e-06 5.5481512e-07)
(0.0014538055 3.1397571e-06 5.3623623e-07)
(0.0014453328 3.0573357e-06 5.1861223e-07)
(0.0014370889 2.9784714e-06 5.0187832e-07)
(0.0014290637 2.9029588e-06 4.8596773e-07)
(0.001421248 2.8306035e-06 4.7082422e-07)
(0.001413633 2.7612186e-06 4.563934e-07)
(0.0014062104 2.6946342e-06 4.4262745e-07)
(0.0013989723 2.6306909e-06 4.2948694e-07)
(0.0013919116 2.5692453e-06 4.1692966e-07)
(0.0013850211 2.5101627e-06 4.0492044e-07)
(0.0013782945 2.4533193e-06 3.934259e-07)
(0.0013717253 2.3985957e-06 3.8241168e-07)
(0.0013653078 2.3458847e-06 3.7185165e-07)
(0.0013590364 2.2950859e-06 3.6171813e-07)
(0.0013529058 2.2461052e-06 3.5198399e-07)
(0.001346911 2.1988497e-06 3.4262474e-07)
(0.0013410472 2.153241e-06 3.3362025e-07)
(0.0013353099 2.1091977e-06 3.2494565e-07)
(0.001329695 2.0666378e-06 3.1657889e-07)
(0.0013241983 2.0254884e-06 3.0849967e-07)
(0.001318816 1.9856731e-06 3.0069e-07)
(0.0013135446 1.9471138e-06 2.9312987e-07)
(0.0013083808 1.9097269e-06 2.8580461e-07)
(0.0013033213 1.8734246e-06 2.7870214e-07)
(0.0012983632 1.8381151e-06 2.7181605e-07)
(0.0012935038 1.8037141e-06 2.6515329e-07)
(0.0012887402 1.7701696e-06 2.5874272e-07)
(0.0012840698 1.7375321e-06 2.5265043e-07)
(0.0012794889 1.7061204e-06 2.4701427e-07)
(0.0012749925 1.6769099e-06 2.4211354e-07)
(0.001270572 1.6524661e-06 2.3851819e-07)
(0.0012662098 1.6393317e-06 2.3765968e-07)
(0.0012618709 1.6545762e-06 2.4458264e-07)
(0.0012574959 1.746371e-06 2.7712437e-07)
(0.0012529717 2.0376711e-06 2.6526392e-07)
(0.0012433358 2.9514827e-06 1.3525334e-06)
(0.0095221617 0.00021179965 0.00022180582)
(0.009269783 0.00029872516 0.00026628967)
(0.0088657772 0.00031669844 0.00025526743)
(0.0083755729 0.000317438 0.00023864265)
(0.0078888426 0.00030841043 0.00021987851)
(0.0074276349 0.00028848207 0.00019850457)
(0.006988258 0.00026048391 0.00017617916)
(0.0065698164 0.00022855168 0.00015444521)
(0.0061756011 0.00019596771 0.00013413534)
(0.0058087146 0.00016504408 0.00011567593)
(0.0054706295 0.00013728621 9.9270838e-05)
(0.0051615551 0.00011345265 8.494783e-05)
(0.0048808654 9.3684506e-05 7.2600736e-05)
(0.0046272998 7.7712987e-05 6.20449e-05)
(0.0043991196 6.5057025e-05 5.3064543e-05)
(0.0041942886 5.5163887e-05 4.5443631e-05)
(0.0040106431 4.7493347e-05 3.8982754e-05)
(0.0038460219 4.1561378e-05 3.3506381e-05)
(0.0036983537 3.6958194e-05 2.8864074e-05)
(0.0035657105 3.3351175e-05 2.4928487e-05)
(0.0034463343 3.0479502e-05 2.1592135e-05)
(0.003338646 2.8144768e-05 1.8764101e-05)
(0.003241243 2.6200154e-05 1.6367138e-05)
(0.0031528887 2.4539752e-05 1.4335369e-05)
(0.0030724986 2.3088866e-05 1.2612489e-05)
(0.0029991252 2.1796112e-05 1.1150133e-05)
(0.0029319421 2.0626904e-05 9.9064821e-06)
(0.0028702292 1.9558163e-05 8.8458158e-06)
(0.0028133589 1.8574038e-05 7.9385371e-06)
(0.0027607855 1.7663622e-05 7.1598225e-06)
(0.0027120345 1.6818832e-05 6.4890354e-06)
(0.0026666927 1.6033067e-05 5.9090204e-06)
(0.0026243991 1.5301096e-05 5.4052724e-06)
(0.0025848382 1.4618819e-05 4.9656528e-06)
(0.0025477347 1.3982713e-05 4.5801143e-06)
(0.0025128472 1.3389544e-05 4.2403267e-06)
(0.002479964 1.2836281e-05 3.9393559e-06)
(0.0024488994 1.2320058e-05 3.6714256e-06)
(0.0024194896 1.1838146e-05 3.4317257e-06)
(0.00239159 1.1387942e-05 3.2162509e-06)
(0.0023650729 1.0966986e-05 3.0216599e-06)
(0.0023398248 1.0572999e-05 2.8451736e-06)
(0.0023157449 1.0203875e-05 2.6844752e-06)
(0.0022927433 9.8575814e-06 2.5375943e-06)
(0.0022707398 9.5322162e-06 2.4028638e-06)
(0.002249662 9.2260296e-06 2.2788655e-06)
(0.0022294453 8.9374203e-06 2.1643991e-06)
(0.0022100312 8.6649288e-06 2.0584382e-06)
(0.0021913666 8.4072384e-06 1.960101e-06)
(0.0021734038 8.1631542e-06 1.868632e-06)
(0.0021560989 7.9316216e-06 1.7833676e-06)
(0.0021394122 7.7117244e-06 1.7037079e-06)
(0.0021233074 7.5026034e-06 1.6291497e-06)
(0.0021077512 7.3033798e-06 1.5592825e-06)
(0.0020927129 7.1131883e-06 1.4937188e-06)
(0.0020781645 6.9314169e-06 1.4321044e-06)
(0.0020640799 6.7576058e-06 1.3741142e-06)
(0.0020504351 6.5912609e-06 1.319462e-06)
(0.0020372075 6.4318792e-06 1.2678948e-06)
(0.0020243766 6.279006e-06 1.2191872e-06)
(0.0020119231 6.1322402e-06 1.1731325e-06)
(0.001999829 5.9912193e-06 1.1295435e-06)
(0.0019880776 5.8556106e-06 1.0882505e-06)
(0.0019766531 5.7251049e-06 1.0490958e-06)
(0.0019655411 5.5994091e-06 1.0119371e-06)
(0.0019547276 5.4782449e-06 9.7664532e-07)
(0.0019441999 5.3613909e-06 9.4310114e-07)
(0.0019339458 5.2486486e-06 9.1118917e-07)
(0.0019239539 5.1398182e-06 8.8080809e-07)
(0.0019142135 5.034702e-06 8.5186037e-07)
(0.0019047144 4.9331183e-06 8.2425903e-07)
(0.001895447 4.8349003e-06 7.979243e-07)
(0.0018864023 4.7398909e-06 7.7278011e-07)
(0.0018775718 4.6479433e-06 7.4875695e-07)
(0.0018689473 4.558924e-06 7.25788e-07)
(0.0018605211 4.4727e-06 7.0381455e-07)
(0.0018522861 4.3891536e-06 6.8277746e-07)
(0.0018442353 4.3081696e-06 6.6262555e-07)
(0.0018363621 4.2296391e-06 6.4330701e-07)
(0.0018286604 4.1534574e-06 6.2477623e-07)
(0.0018211241 4.0795287e-06 6.0698927e-07)
(0.0018137478 4.0077547e-06 5.8990154e-07)
(0.0018065261 3.9380366e-06 5.7347313e-07)
(0.001799454 3.8702798e-06 5.5766722e-07)
(0.0017925266 3.8043823e-06 5.4244687e-07)
(0.0017857396 3.7402378e-06 5.2777846e-07)
(0.0017790885 3.6777276e-06 5.1362886e-07)
(0.0017725695 3.6167263e-06 4.9996995e-07)
(0.0017661787 3.557108e-06 4.8677511e-07)
(0.0017599128 3.4987607e-06 4.7402517e-07)
(0.0017537682 3.4416547e-06 4.6170969e-07)
(0.0017477416 3.3859635e-06 4.4983567e-07)
(0.0017418294 3.3323809e-06 4.3844318e-07)
(0.0017360272 3.2827914e-06 4.2764707e-07)
(0.0017303281 3.2417761e-06 4.1776865e-07)
(0.0017247202 3.2200397e-06 4.0999094e-07)
(0.001719183 3.2421543e-06 4.0984973e-07)
(0.001713691 3.3643427e-06 4.4114382e-07)
(0.0017081999 3.7072195e-06 4.7353345e-07)
(0.0016974804 4.4611216e-06 1.8634987e-06)
(0.0095012861 0.00013951169 0.00022248511)
(0.0092133349 0.00022408324 0.00026709763)
(0.0088018509 0.0002570094 0.00025529581)
(0.0083306071 0.00026690691 0.0002382081)
(0.0078754299 0.00026502159 0.00021939837)
(0.0074527063 0.0002529565 0.00019823245)
(0.0070564396 0.00023295893 0.00017634609)
(0.0066827538 0.00020836345 0.0001552305)
(0.006331873 0.00018203353 0.00013558338)
(0.0060047052 0.00015603739 0.00011769036)
(0.0057015056 0.000131804 0.00010166909)
(0.0054220192 0.00011020724 8.7524314e-05)
(0.0051656909 9.1631899e-05 7.5171986e-05)
(0.0049316845 7.6091186e-05 6.4472618e-05)
(0.0047188814 6.3363142e-05 5.5261149e-05)
(0.0045259349 5.3104941e-05 4.736682e-05)
(0.0043513547 4.4932758e-05 4.0624899e-05)
(0.0041935865 3.8471361e-05 3.4883032e-05)
(0.0040510752 3.3381245e-05 3.0003996e-05)
(0.0039223115 2.9370508e-05 2.5866182e-05)
(0.0038058643 2.6197261e-05 2.2362867e-05)
(0.0037004012 2.366673e-05 1.9400962e-05)
(0.0036047 2.1625757e-05 1.689961e-05)
(0.0035176529 1.9956327e-05 1.4788825e-05)
(0.0034382652 1.8569047e-05 1.3008105e-05)
(0.0033656513 1.7397361e-05 1.1504746e-05)
(0.0032990266 1.6392004e-05 1.0233523e-05)
(0.0032376995 1.5516242e-05 9.1565349e-06)
(0.0031810636 1.4743888e-05 8.2421114e-06)
(0.0031285885 1.4056152e-05 7.4635751e-06)
(0.0030798115 1.3438895e-05 6.7985195e-06)
(0.0030343294 1.2881152e-05 6.228222e-06)
(0.0029917905 1.2374496e-05 5.7369822e-06)
(0.0029518882 1.191242e-05 5.3116667e-06)
(0.0029143553 1.1489691e-05 4.9413536e-06)
(0.0028789586 1.1101929e-05 4.6170014e-06)
(0.0028454946 1.0745381e-05 4.3311225e-06)
(0.0028137847 1.0416775e-05 4.0775277e-06)
(0.0027836727 1.0113218e-05 3.851108e-06)
(0.0027550209 9.8321213e-06 3.647645e-06)
(0.0027277081 9.5711598e-06 3.463664e-06)
(0.002701627 9.32825e-06 3.2963001e-06)
(0.0026766823 9.1015167e-06 3.1431913e-06)
(0.0026527895 8.8892433e-06 3.002383e-06)
(0.0026298729 8.6898927e-06 2.8722565e-06)
(0.0026078648 8.5020897e-06 2.751471e-06)
(0.002586704 8.3246173e-06 2.6389099e-06)
(0.0025663358 8.156396e-06 2.533642e-06)
(0.0025467102 7.9964772e-06 2.4348845e-06)
(0.002527782 7.8440266e-06 2.3419786e-06)
(0.0025095101 7.6983371e-06 2.2543618e-06)
(0.0024918566 7.5588109e-06 2.171544e-06)
(0.0024747871 7.4248999e-06 2.0931111e-06)
(0.0024582699 7.2960223e-06 2.0187197e-06)
(0.0024422756 7.171441e-06 1.9480683e-06)
(0.0024267775 7.05093e-06 1.8808984e-06)
(0.0024117506 6.934378e-06 1.8169526e-06)
(0.0023971715 6.8214901e-06 1.7560025e-06)
(0.0023830185 6.7119562e-06 1.6978515e-06)
(0.0023692714 6.6055383e-06 1.6423283e-06)
(0.0023559116 6.502045e-06 1.5892719e-06)
(0.0023429214 6.401308e-06 1.5385379e-06)
(0.0023302844 6.3031804e-06 1.4899937e-06)
(0.0023179851 6.2075259e-06 1.4435164e-06)
(0.0023060089 6.1142031e-06 1.3989935e-06)
(0.0022943424 6.0230683e-06 1.3563252e-06)
(0.0022829727 5.9340594e-06 1.3154158e-06)
(0.0022718877 5.84713e-06 1.2761701e-06)
(0.002261076 5.7622048e-06 1.238502e-06)
(0.0022505267 5.6791987e-06 1.2023305e-06)
(0.0022402296 5.5980414e-06 1.1675828e-06)
(0.0022301752 5.5186729e-06 1.1341879e-06)
(0.0022203542 5.4410306e-06 1.1020811e-06)
(0.002210758 5.3650626e-06 1.0711994e-06)
(0.0022013784 5.2907182e-06 1.0414854e-06)
(0.0021922076 5.2179486e-06 1.0128823e-06)
(0.0021832381 5.1467105e-06 9.8533721e-07)
(0.0021744628 5.0769578e-06 9.5880302e-07)
(0.0021658752 5.0086507e-06 9.3323106e-07)
(0.0021574688 4.9417449e-06 9.085751e-07)
(0.0021492375 4.8761985e-06 8.8479161e-07)
(0.0021411756 4.8119666e-06 8.6183934e-07)
(0.0021332776 4.7489991e-06 8.3967873e-07)
(0.0021255383 4.687239e-06 8.1827018e-07)
(0.0021179527 4.6266226e-06 7.9757742e-07)
(0.0021105161 4.5670691e-06 7.7756114e-07)
(0.0021032242 4.508482e-06 7.5818431e-07)
(0.0020960727 4.4507543e-06 7.3941074e-07)
(0.0020890577 4.3937757e-06 7.2120337e-07)
(0.0020821756 4.3374559e-06 7.0352211e-07)
(0.002075423 4.2818117e-06 6.8632241e-07)
(0.0020687967 4.2271337e-06 6.6956207e-07)
(0.0020622937 4.1743537e-06 6.5320322e-07)
(0.002055911 4.1258133e-06 6.3726279e-07)
(0.0020496453 4.0868288e-06 6.2198481e-07)
(0.0020434926 4.068776e-06 6.0874724e-07)
(0.0020374483 4.0948765e-06 6.0452225e-07)
(0.0020315149 4.2094252e-06 6.3987845e-07)
(0.0020256647 4.4797492e-06 7.1688521e-07)
(0.0020144539 4.9057779e-06 2.269525e-06)
(0.0094902877 9.6726609e-05 0.00022289229)
(0.00917661 0.00016632333 0.00026788105)
(0.0087449456 0.00019969046 0.00025550648)
(0.0082664657 0.00021101604 0.00023762681)
(0.00781215 0.0002109939 0.0002181603)
(0.0073950862 0.0002028236 0.00019646328)
(0.0070087986 0.00018827265 0.00017418493)
(0.006648835 0.00016968865 0.0001528463)
(0.0063142174 0.00014929331 0.00013312182)
(0.0060045996 0.00012875288 0.0001152379)
(0.0057192201 0.00010923291 9.9256791e-05)
(0.0054570682 9.149007e-05 8.5148911e-05)
(0.0052170782 7.5923399e-05 7.2816212e-05)
(0.0049981259 6.264333e-05 6.2119134e-05)
(0.0047989841 5.1561151e-05 5.2900048e-05)
(0.0046183234 4.2472278e-05 4.4997976e-05)
(0.0044547458 3.5118725e-05 3.8256896e-05)
(0.0043068267 2.9230544e-05 3.2530442e-05)
(0.0041731526 2.4550834e-05 2.7684339e-05)
(0.0040523509 2.0849109e-05 2.3597362e-05)
(0.0039431142 1.792691e-05 2.0161345e-05)
(0.0038442168 1.5618598e-05 1.7280682e-05)
(0.0037545253 1.3789364e-05 1.4871531e-05)
(0.0036730042 1.2331758e-05 1.2860862e-05)
(0.0035987172 1.1161538e-05 1.1185212e-05)
(0.0035308246 1.0213366e-05 9.7889742e-06)
(0.0034685786 9.4380828e-06 8.6250714e-06)
(0.0034113173 8.7971286e-06 7.6543146e-06)
(0.0033584589 8.2627211e-06 6.8439395e-06)
(0.0033094933 7.8140825e-06 6.1664547e-06)
(0.0032639753 7.4348243e-06 5.5988453e-06)
(0.0032215172 7.1121298e-06 5.1219274e-06)
(0.0031817817 6.8360966e-06 4.7197276e-06)
(0.0031444758 6.5990201e-06 4.3789735e-06)
(0.0031093448 6.3947802e-06 4.0886802e-06)
(0.0030761678 6.2184051e-06 3.8397981e-06)
(0.0030447526 6.0657974e-06 3.6248788e-06)
(0.003014932 5.9335283e-06 3.4378181e-06)
(0.0029865602 5.8186964e-06 3.2736174e-06)
(0.0029595097 5.718818e-06 3.1282053e-06)
(0.002933669 5.6317511e-06 2.9982611e-06)
(0.0029089401 5.5556269e-06 2.8810967e-06)
(0.0028852364 5.4888245e-06 2.7745336e-06)
(0.0028624815 5.4299121e-06 2.676811e-06)
(0.0028406075 5.3776433e-06 2.5865053e-06)
(0.0028195538 5.3309241e-06 2.5024731e-06)
(0.0027992664 5.2888081e-06 2.4237883e-06)
(0.0027796963 5.2504819e-06 2.3497114e-06)
(0.0027607998 5.2152424e-06 2.2796375e-06)
(0.002742537 5.1824978e-06 2.2130844e-06)
(0.0027248717 5.1517674e-06 2.1496544e-06)
(0.0027077708 5.1226702e-06 2.089022e-06)
(0.0026912041 5.0948963e-06 2.0309195e-06)
(0.0026751435 5.0680871e-06 1.9751357e-06)
(0.0026595636 5.0410664e-06 1.9215391e-06)
(0.0026444411 5.0142594e-06 1.8699674e-06)
(0.002629754 4.9880187e-06 1.8202522e-06)
(0.0026154815 4.962073e-06 1.7722787e-06)
(0.0026016045 4.9361417e-06 1.7259607e-06)
(0.0025881054 4.9100851e-06 1.6812138e-06)
(0.0025749674 4.883833e-06 1.6379654e-06)
(0.002562175 4.8573392e-06 1.596146e-06)
(0.0025497136 4.8305804e-06 1.5556929e-06)
(0.0025375693 4.8035395e-06 1.5165483e-06)
(0.0025257292 4.7761743e-06 1.4786603e-06)
(0.002514181 4.7483838e-06 1.4419862e-06)
(0.0025029134 4.7202758e-06 1.4064831e-06)
(0.0024919154 4.6919149e-06 1.3721015e-06)
(0.0024811765 4.6632916e-06 1.3387964e-06)
(0.002470687 4.6344025e-06 1.306529e-06)
(0.0024604377 4.6052675e-06 1.2752598e-06)
(0.0024504197 4.5759097e-06 1.2449535e-06)
(0.0024406247 4.5463455e-06 1.2155762e-06)
(0.0024310448 4.5166025e-06 1.1870931e-06)
(0.0024216723 4.4866959e-06 1.1594721e-06)
(0.0024125001 4.4566509e-06 1.1326838e-06)
(0.0024035213 4.4264899e-06 1.1066968e-06)
(0.0023947295 4.3962285e-06 1.0814826e-06)
(0.0023861184 4.3658896e-06 1.0570123e-06)
(0.0023776821 4.3354869e-06 1.0332592e-06)
(0.0023694149 4.3050325e-06 1.0101967e-06)
(0.0023613115 4.2745349e-06 9.8779611e-07)
(0.0023533667 4.2439934e-06 9.6603053e-07)
(0.0023455757 4.2133959e-06 9.4487445e-07)
(0.0023379338 4.182721e-06 9.2429892e-07)
(0.0023304365 4.1519278e-06 9.0427719e-07)
(0.0023230798 4.1209541e-06 8.8477246e-07)
(0.0023158598 4.0897239e-06 8.6575255e-07)
(0.0023087726 4.0581566e-06 8.4717266e-07)
(0.002301815 4.0261916e-06 8.2898153e-07)
(0.0022949838 3.9938768e-06 8.1110761e-07)
(0.0022882766 3.9615313e-06 7.9346372e-07)
(0.002281691 3.930078e-06 7.7594374e-07)
(0.0022752261 3.9016906e-06 7.5847863e-07)
(0.002268882 3.8809394e-06 7.412459e-07)
(0.0022626608 3.8766471e-06 7.2572609e-07)
(0.0022565686 3.9043044e-06 7.1957957e-07)
(0.0022506189 3.9866549e-06 7.557996e-07)
(0.0022447715 4.1390999e-06 8.4931843e-07)
(0.002233564 4.2832253e-06 2.412211e-06)
(0.0094843561 6.6886586e-05 0.00022303624)
(0.0091549219 0.00011904886 0.00026838771)
(0.0087072816 0.00014772496 0.00025588053)
(0.0082191888 0.00015892952 0.00023765677)
(0.0077602858 0.00016026049 0.00021787143)
(0.0073412804 0.00015505102 0.00019586613)
(0.0069552494 0.00014481701 0.00017327438)
(0.0065978366 0.00013121474 0.00015165024)
(0.0062677954 0.00011592881 0.00013169211)
(0.0059642872 0.00010028521 0.0001136244)
(0.0056860598 8.521443e-05 9.7497523e-05)
(0.0054316726 7.1330407e-05 8.3272196e-05)
(0.0051997008 5.8984297e-05 7.0844883e-05)
(0.0049887459 4.8311753e-05 6.0073372e-05)
(0.0047973943 3.9291582e-05 5.079889e-05)
(0.0046242055 3.1804354e-05 4.2859902e-05)
(0.0044677269 2.5679086e-05 3.6099806e-05)
(0.0043265179 2.0725784e-05 3.037129e-05)
(0.0041991724 1.6756343e-05 2.5538702e-05)
(0.004084339 1.3596836e-05 2.1479083e-05)
(0.0039807371 1.1093751e-05 1.8082324e-05)
(0.0038871692 9.1161627e-06 1.5250791e-05)
(0.0038025288 7.5553795e-06 1.2898647e-05)
(0.003725804 6.3231329e-06 1.0950987e-05)
(0.0036560786 5.348818e-06 9.3426788e-06)
(0.0035925304 4.5751807e-06 8.0166133e-06)
(0.0035344253 3.9620987e-06 6.9239483e-06)
(0.0034811131 3.4726266e-06 6.025073e-06)
(0.0034320221 3.0815193e-06 5.2862628e-06)
(0.0033866501 2.7702777e-06 4.6792106e-06)
(0.0033445586 2.5236743e-06 4.1805213e-06)
(0.0033053662 2.329586e-06 3.7707527e-06)
(0.0032687419 2.1784965e-06 3.4337459e-06)
(0.0032343982 2.0629045e-06 3.1561112e-06)
(0.0032020863 1.9768091e-06 2.926797e-06)
(0.0031715907 1.9153165e-06 2.7367041e-06)
(0.0031427248 1.8743795e-06 2.5783558e-06)
(0.0031153267 1.8506045e-06 2.4456291e-06)
(0.0030892563 1.8411242e-06 2.3335224e-06)
(0.0030643915 1.8434981e-06 2.2379675e-06)
(0.003040626 1.8556445e-06 2.1556628e-06)
(0.0030178671 1.8757808e-06 2.0839511e-06)
(0.0029960335 1.9023804e-06 2.020694e-06)
(0.0029750538 1.9341334e-06 1.9641815e-06)
(0.0029548648 1.9699146e-06 1.9130515e-06)
(0.0029354109 2.0087626e-06 1.8662261e-06)
(0.0029166424 2.0498573e-06 1.8228521e-06)
(0.0028985148 2.0925097e-06 1.7822573e-06)
(0.0028809886 2.1361371e-06 1.7439145e-06)
(0.0028640277 2.1802707e-06 1.7074101e-06)
(0.0028476 2.2245516e-06 1.6724141e-06)
(0.0028316758 2.268762e-06 1.6386553e-06)
(0.0028162284 2.312895e-06 1.6058715e-06)
(0.0028012324 2.3570807e-06 1.5738229e-06)
(0.0027866658 2.3978722e-06 1.543189e-06)
(0.0027725089 2.4362357e-06 1.5136873e-06)
(0.0027587418 2.4734401e-06 1.4848896e-06)
(0.002745346 2.5095353e-06 1.4567012e-06)
(0.002732305 2.5443509e-06 1.4291161e-06)
(0.0027196032 2.5777717e-06 1.402111e-06)
(0.0027072261 2.6097236e-06 1.3756641e-06)
(0.0026951602 2.6401654e-06 1.3497562e-06)
(0.0026833928 2.6690888e-06 1.3243748e-06)
(0.0026719116 2.696505e-06 1.2995092e-06)
(0.0026607054 2.7223727e-06 1.2751532e-06)
(0.0026497635 2.7463564e-06 1.2513132e-06)
(0.002639076 2.7689079e-06 1.2279778e-06)
(0.0026286333 2.790146e-06 1.2051279e-06)
(0.0026184262 2.8099931e-06 1.1827597e-06)
(0.0026084461 2.8284324e-06 1.1608704e-06)
(0.0025986849 2.8454939e-06 1.1394501e-06)
(0.0025891348 2.8612179e-06 1.1184907e-06)
(0.0025797885 2.8756483e-06 1.0979862e-06)
(0.002570639 2.8888313e-06 1.0779281e-06)
(0.0025616795 2.9008055e-06 1.0583091e-06)
(0.0025529038 2.9116198e-06 1.0391185e-06)
(0.0025443058 2.9213145e-06 1.0203478e-06)
(0.0025358796 2.9299296e-06 1.0019905e-06)
(0.0025276198 2.9375048e-06 9.8403194e-07)
(0.002519521 2.9440788e-06 9.6646479e-07)
(0.0025115783 2.9496803e-06 9.4927942e-07)
(0.0025037869 2.9543366e-06 9.3246248e-07)
(0.0024961421 2.9580674e-06 9.1600016e-07)
(0.0024886396 2.9608818e-06 8.9988037e-07)
(0.0024812752 2.9627736e-06 8.8408586e-07)
(0.002474045 2.963722e-06 8.6859463e-07)
(0.0024669452 2.9636885e-06 8.5338221e-07)
(0.0024599723 2.9626123e-06 8.3841456e-07)
(0.0024531231 2.9604293e-06 8.2364264e-07)
(0.0024463945 2.9570954e-06 8.0900328e-07)
(0.0024397839 2.9526507e-06 7.9439828e-07)
(0.0024332895 2.9473506e-06 7.7969496e-07)
(0.0024269099 2.9419129e-06 7.6470965e-07)
(0.0024206457 2.9379216e-06 7.4926052e-07)
(0.0024144993 2.9384191e-06 7.3336531e-07)
(0.0024084767 2.9484968e-06 7.1826386e-07)
(0.0024025877 2.9751257e-06 7.1113317e-07)
(0.002396846 3.0234616e-06 7.4331377e-07)
(0.0023911946 3.0808299e-06 8.3046701e-07)
(0.0023803644 3.0574256e-06 2.2999443e-06)
(0.0094810492 4.4090135e-05 0.00022308885)
(0.0091422796 7.9975482e-05 0.00026874495)
(0.0086839084 0.00010160921 0.00025628771)
(0.0081880903 0.00011101591 0.00023793456)
(0.0077246858 0.00011275118 0.00021798622)
(0.0073029895 0.00010953687 0.00019578738)
(0.0069155191 0.00010266029 0.00017296032)
(0.0065579578 9.3267237e-05 0.0001510852)
(0.006229001 8.2539593e-05 0.00013089045)
(0.005927585 7.1446832e-05 0.00011261412)
(0.0056522063 6.0673359e-05 9.6309239e-05)
(0.0054012005 5.0670807e-05 8.1936268e-05)
(0.0051729477 4.1706608e-05 6.9390832e-05)
(0.004965887 3.3898115e-05 5.8529096e-05)
(0.0047784814 2.7249953e-05 4.9189878e-05)
(0.0046092054 2.1693074e-05 4.1208774e-05)
(0.0044565535 1.7117438e-05 3.4426144e-05)
(0.0043190553 1.3395518e-05 2.8691658e-05)
(0.0041952917 1.0397811e-05 2.3866805e-05)
(0.0040839086 8.0023294e-06 1.9826012e-05)
(0.0039836292 6.0997683e-06 1.6456862e-05)
(0.0038932634 4.5956608e-06 1.3659715e-05)
(0.0038117126 3.4106712e-06 1.1347012e-05)
(0.0037379734 2.479928e-06 9.4422911e-06)
(0.0036711359 1.7515097e-06 7.8790903e-06)
(0.0036103859 1.1749033e-06 6.6010327e-06)
(0.0035549935 7.2234042e-07 5.5561206e-06)
(0.0035043108 3.7342535e-07 4.7060695e-06)
(0.0034577717 1.0569585e-07 4.0163442e-06)
(0.0034148763 -9.9087933e-08 3.4574136e-06)
(0.0033751872 -2.5333481e-07 3.0054959e-06)
(0.0033383243 -3.6639884e-07 2.6409751e-06)
(0.0033039576 -4.4577917e-07 2.3475739e-06)
(0.0032718009 -4.9748374e-07 2.1118266e-06)
(0.0032416065 -5.2634637e-07 1.9226421e-06)
(0.0032131599 -5.3631168e-07 1.7709152e-06)
(0.0031862758 -5.3064086e-07 1.6492035e-06)
(0.0031607936 -5.1206405e-07 1.5514413e-06)
(0.0031365743 -4.8287186e-07 1.4727096e-06)
(0.0031134976 -4.4500743e-07 1.4090314e-06)
(0.0030914586 -4.0011258e-07 1.3572045e-06)
(0.0030703663 -3.4958007e-07 1.3146562e-06)
(0.0030501409 -2.9459496e-07 1.2793307e-06)
(0.0030307129 -2.3616895e-07 1.2495914e-06)
(0.0030120207 -1.7516522e-07 1.2241401e-06)
(0.0029940105 -1.1232174e-07 1.2019528e-06)
(0.0029766343 -4.8268023e-08 1.1822233e-06)
(0.0029598495 1.6449295e-08 1.1643218e-06)
(0.0029436181 8.1354636e-08 1.1477528e-06)
(0.002927906 1.4602493e-07 1.132124e-06)
(0.0029126825 2.1005943e-07 1.1171186e-06)
(0.0028979201 2.7304956e-07 1.1024396e-06)
(0.0028835935 3.345433e-07 1.0876607e-06)
(0.0028696773 3.9432604e-07 1.0722025e-06)
(0.0028561514 4.5705018e-07 1.0590084e-06)
(0.0028429997 5.20602e-07 1.0472582e-06)
(0.0028302035 5.8225338e-07 1.035608e-06)
(0.0028177449 6.4163949e-07 1.0238004e-06)
(0.0028056084 6.9901921e-07 1.0118747e-06)
(0.0027937799 7.5455984e-07 9.998691e-07)
(0.0027822461 8.0834842e-07 9.8781068e-07)
(0.0027709946 8.604695e-07 9.7571862e-07)
(0.0027600137 9.11028e-07 9.6360244e-07)
(0.0027492926 9.6019564e-07 9.5144754e-07)
(0.0027388207 1.0080067e-06 9.3926761e-07)
(0.0027285887 1.052851e-06 9.2746499e-07)
(0.0027185878 1.0958669e-06 9.1582945e-07)
(0.0027088089 1.1375003e-06 9.042537e-07)
(0.0026992438 1.1777671e-06 8.9275914e-07)
(0.0026898847 1.2166581e-06 8.8136538e-07)
(0.0026807244 1.2541711e-06 8.700802e-07)
(0.0026717559 1.2903134e-06 8.5890779e-07)
(0.0026629726 1.3251076e-06 8.4785382e-07)
(0.0026543682 1.358573e-06 8.3692323e-07)
(0.0026459367 1.3907403e-06 8.2612212e-07)
(0.0026376723 1.4216356e-06 8.1545276e-07)
(0.0026295698 1.4512903e-06 8.0491885e-07)
(0.0026216238 1.4797326e-06 7.945225e-07)
(0.0026138294 1.5069902e-06 7.8426311e-07)
(0.002606182 1.5330929e-06 7.7414102e-07)
(0.0025986769 1.5580636e-06 7.6415245e-07)
(0.0025913099 1.5819207e-06 7.5429585e-07)
(0.0025840769 1.6046806e-06 7.4456535e-07)
(0.0025769739 1.6263504e-06 7.3495291e-07)