/*--------------------------------*- C++ -*----------------------------------*\
  =========                 |
  \\      /  F ield         | OpenFOAM: The Open Source CFD Toolbox
   \\    /   O peration     | Website:  https://openfoam.org
    \\  /    A nd           | Version:  7
     \\/     M anipulation  |
\*---------------------------------------------------------------------------*/
FoamFile
{
    version     2.0;
    format      ascii;
    class       volVectorField;
    location    "3050/water";
    object      U;
}
// * * * * * * * * * * * * * * * * * * * * * * * * * * * * * * * * * * * * * //

dimensions      [0 1 -1 0 0 0 0];

internalField   nonuniform List<vector> 
54000
(
(0.0090020934 0.00020305973 0.00020444027)
(0.0083186447 0.00023622738 0.00023904411)
(0.0073695241 0.00021363852 0.00021763527)
(0.0063566114 0.00018488016 0.00018965819)
(0.0054486673 0.00015530836 0.00016048633)
(0.0046741594 0.00012529952 0.00013052937)
(0.0040193038 9.7052611e-05 0.00010203017)
(0.0034740067 7.2578999e-05 7.7073287e-05)
(0.0030302461 5.2876125e-05 5.6738329e-05)
(0.0026757323 3.806815e-05 4.1216512e-05)
(0.0023947254 2.7637703e-05 3.003714e-05)
(0.0021713898 2.0689034e-05 2.2336508e-05)
(0.0019919695 1.623616e-05 1.7152703e-05)
(0.0018455015 1.3416236e-05 1.3643172e-05)
(0.0017237326 1.1582488e-05 1.1179123e-05)
(0.0016206928 1.0304891e-05 9.3455812e-06)
(0.0015321593 9.3257904e-06 7.8957157e-06)
(0.0014551546 8.5052963e-06 6.6953107e-06)
(0.0013875459 7.7746333e-06 5.6760567e-06)
(0.0013277612 7.1034283e-06 4.8034862e-06)
(0.001274601 6.47985e-06 4.0581564e-06)
(0.0012271179 5.8999458e-06 3.4261585e-06)
(0.0011845424 5.3625309e-06 2.8950705e-06)
(0.001146235 4.8670219e-06 2.4526299e-06)
(0.0011116558 4.4125998e-06 2.0869769e-06)
(0.0010803434 3.9980135e-06 1.7867452e-06)
(0.0010519002 3.6214599e-06 1.5416131e-06)
(0.0010259819 3.2805936e-06 1.3421853e-06)
(0.001002289 2.9733947e-06 1.179731e-06)
(0.00098056199 2.6979497e-06 1.046321e-06)
(0.00096057571 2.4519212e-06 9.3658899e-07)
(0.00094213242 2.2325672e-06 8.4693373e-07)
(0.00092505792 2.0373874e-06 7.7316586e-07)
(0.00090920047 1.8640898e-06 7.1184167e-07)
(0.00089442818 1.710463e-06 6.6046708e-07)
(0.0008806259 1.5743826e-06 6.1707387e-07)
(0.00086769295 1.4538612e-06 5.8005393e-07)
(0.00085554128 1.3470711e-06 5.4811523e-07)
(0.00084409387 1.252349e-06 5.2023944e-07)
(0.00083328322 1.1681986e-06 4.9562789e-07)
(0.00082305015 1.0932615e-06 4.7365358e-07)
(0.00081334267 1.0262298e-06 4.5378284e-07)
(0.00080411486 9.6585895e-07 4.3554482e-07)
(0.00079532615 9.1131119e-07 4.186506e-07)
(0.0007869407 8.6191655e-07 4.0290714e-07)
(0.00077892675 8.170835e-07 3.8816869e-07)
(0.00077125603 7.7627666e-07 3.7432078e-07)
(0.0007639033 7.3902629e-07 3.6127583e-07)
(0.00075684598 7.0491455e-07 3.4896346e-07)
(0.00075006373 6.7357467e-07 3.3733097e-07)
(0.00074353822 6.4469382e-07 3.2633695e-07)
(0.00073725294 6.1802561e-07 3.1581906e-07)
(0.00073119314 5.9334709e-07 3.0574377e-07)
(0.00072534528 5.7041841e-07 2.9621131e-07)
(0.00071969687 5.4902444e-07 2.8716613e-07)
(0.00071423653 5.2901529e-07 2.7854349e-07)
(0.00070895386 5.1027441e-07 2.7031118e-07)
(0.00070383928 4.9268698e-07 2.6244796e-07)
(0.00069888397 4.7614468e-07 2.5493261e-07)
(0.00069407976 4.6054955e-07 2.4774334e-07)
(0.00068941911 4.4582011e-07 2.4086358e-07)
(0.00068489502 4.3188493e-07 2.3427545e-07)
(0.00068050098 4.1867957e-07 2.2796441e-07)
(0.00067623091 4.0614715e-07 2.2191191e-07)
(0.00067207915 3.9423527e-07 2.1610626e-07)
(0.00066804042 3.8289631e-07 2.1053108e-07)
(0.00066410976 3.7209458e-07 2.0517828e-07)
(0.00066028251 3.6179455e-07 2.0003243e-07)
(0.00065655429 3.5196292e-07 1.9508311e-07)
(0.00065292099 3.4256962e-07 1.9031751e-07)
(0.00064937872 3.3358604e-07 1.8572841e-07)
(0.00064592384 3.2498723e-07 1.8130643e-07)
(0.00064255288 3.1675183e-07 1.7704092e-07)
(0.00063926261 3.0885646e-07 1.72925e-07)
(0.00063604992 3.0128205e-07 1.6895071e-07)
(0.00063291192 2.9401288e-07 1.6511116e-07)
(0.00062984583 2.870316e-07 1.6139775e-07)
(0.00062684904 2.8032208e-07 1.578035e-07)
(0.00062391907 2.7387053e-07 1.5431995e-07)
(0.00062105358 2.6766584e-07 1.5094202e-07)
(0.00061825035 2.6169507e-07 1.4766096e-07)
(0.00061550727 2.559452e-07 1.4446892e-07)
(0.00061282235 2.5040694e-07 1.4135975e-07)
(0.00061019373 2.4506832e-07 1.3832401e-07)
(0.00060761964 2.3991933e-07 1.3535461e-07)
(0.00060509845 2.3494606e-07 1.3244834e-07)
(0.00060262863 2.3013474e-07 1.295983e-07)
(0.00060020873 2.2546965e-07 1.2680353e-07)
(0.00059783744 2.2093195e-07 1.2407461e-07)
(0.00059551348 2.1649907e-07 1.2143367e-07)
(0.00059323555 2.1214978e-07 1.1892943e-07)
(0.00059100214 2.0787179e-07 1.1666271e-07)
(0.00058881114 2.0369035e-07 1.1483026e-07)
(0.00058665898 1.9973149e-07 1.1382006e-07)
(0.0005845387 1.9638369e-07 1.1441057e-07)
(0.00058243501 1.9487274e-07 1.1837342e-07)
(0.00058031396 1.9977368e-07 1.3094443e-07)
(0.0005781161 2.2258479e-07 1.6397639e-07)
(0.00057566369 1.9706931e-07 1.5080626e-07)
(0.00056906201 7.8896407e-07 7.5322561e-07)
(0.0095316863 0.0003313754 0.00022336697)
(0.0092716504 0.00041105942 0.00027052342)
(0.0087756651 0.00040317187 0.00026060062)
(0.0081527518 0.00038218754 0.00024252081)
(0.0075302151 0.00035309575 0.00022101124)
(0.0069425889 0.00031541063 0.00019648834)
(0.006391209 0.00027309198 0.00017102969)
(0.0058791845 0.00023030694 0.00014652546)
(0.0054120202 0.00019001855 0.00012410997)
(0.0049926512 0.00015423459 0.00010436627)
(0.004620592 0.00012408347 8.7479017e-05)
(0.0042931332 9.9809402e-05 7.3327496e-05)
(0.0040063965 8.0956423e-05 6.1601504e-05)
(0.0037559538 6.6672209e-05 5.1918794e-05)
(0.0035372541 5.59858e-05 4.3907444e-05)
(0.003345947 4.7992055e-05 3.7246645e-05)
(0.0031780884 4.1941709e-05 3.1677529e-05)
(0.0030302311 3.7262447e-05 2.6997921e-05)
(0.0028994324 3.3540996e-05 2.3051137e-05)
(0.0027832152 3.0490244e-05 1.9714592e-05)
(0.0026795075 2.7915736e-05 1.6890543e-05)
(0.0025865783 2.5687842e-05 1.4499382e-05)
(0.002502978 2.3720893e-05 1.2475015e-05)
(0.0024274871 2.1958432e-05 1.0761725e-05)
(0.0023590736 2.0362995e-05 9.3122317e-06)
(0.0022968589 1.8909456e-05 8.0861283e-06)
(0.0022400906 1.7580768e-05 7.048963e-06)
(0.0021881216 1.6364898e-05 6.1714974e-06)
(0.0021403932 1.5251963e-05 5.4283143e-06)
(0.0020964214 1.4233849e-05 4.7973498e-06)
(0.0020557868 1.330304e-05 4.2604807e-06)
(0.0020181236 1.2451985e-05 3.8027034e-06)
(0.0019831119 1.1673909e-05 3.4109605e-06)
(0.0019504718 1.0962756e-05 3.0744202e-06)
(0.0019199589 1.0312854e-05 2.7842596e-06)
(0.0018913593 9.7188338e-06 2.5331805e-06)
(0.0018644851 9.1756455e-06 2.3150741e-06)
(0.0018391716 8.6785726e-06 2.1248319e-06)
(0.0018152735 8.2232424e-06 1.958184e-06)
(0.001792663 7.8056218e-06 1.811568e-06)
(0.0017712268 7.4219979e-06 1.6820121e-06)
(0.001750865 7.0689375e-06 1.5670696e-06)
(0.0017314886 6.7432683e-06 1.4647425e-06)
(0.0017130186 6.4422725e-06 1.373275e-06)
(0.0016953848 6.1635563e-06 1.2911588e-06)
(0.0016785241 5.9049785e-06 1.2171194e-06)
(0.00166238 5.6646095e-06 1.1500838e-06)
(0.0016469019 5.4407257e-06 1.0891489e-06)
(0.001632044 5.2317773e-06 1.0335532e-06)
(0.0016177649 5.0363834e-06 9.826539e-07)
(0.0016040271 4.853322e-06 9.3589458e-07)
(0.0015907965 4.6815631e-06 8.9273722e-07)
(0.0015780424 4.5201564e-06 8.527867e-07)
(0.0015657364 4.3681528e-06 8.1577032e-07)
(0.0015538526 4.2246832e-06 7.8138565e-07)
(0.0015423672 4.0890604e-06 7.4934574e-07)
(0.0015312583 3.9607298e-06 7.1941277e-07)
(0.0015205058 3.8391515e-06 6.913868e-07)
(0.0015100909 3.7238123e-06 6.6509452e-07)
(0.0014999963 3.6142429e-06 6.4037943e-07)
(0.0014902061 3.5100286e-06 6.1710803e-07)
(0.0014807053 3.4107979e-06 5.9515978e-07)
(0.00147148 3.3162115e-06 5.7442826e-07)
(0.0014625175 3.2259598e-06 5.548149e-07)
(0.0014538055 3.1397558e-06 5.3623523e-07)
(0.0014453328 3.0573343e-06 5.186128e-07)
(0.0014370889 2.9784712e-06 5.0187805e-07)
(0.0014290637 2.9029589e-06 4.8596839e-07)
(0.001421248 2.8306031e-06 4.7082395e-07)
(0.001413633 2.761218e-06 4.5639354e-07)
(0.0014062104 2.6946321e-06 4.4262943e-07)
(0.0013989723 2.6306896e-06 4.2948811e-07)
(0.0013919116 2.5692457e-06 4.1693078e-07)
(0.0013850212 2.5101635e-06 4.0492134e-07)
(0.0013782945 2.4533175e-06 3.9342476e-07)
(0.0013717253 2.3985951e-06 3.8241168e-07)
(0.0013653078 2.3458853e-06 3.7185197e-07)
(0.0013590364 2.2950859e-06 3.6171792e-07)
(0.0013529058 2.2461038e-06 3.5198367e-07)
(0.001346911 2.1988509e-06 3.4262612e-07)
(0.0013410472 2.1532422e-06 3.3362023e-07)
(0.0013353099 2.1091971e-06 3.2494577e-07)
(0.001329695 2.0666367e-06 3.1657897e-07)
(0.0013241983 2.0254866e-06 3.0849993e-07)
(0.001318816 1.985673e-06 3.0069145e-07)
(0.0013135446 1.947114e-06 2.9313105e-07)
(0.0013083808 1.909726e-06 2.8580632e-07)
(0.0013033213 1.8734242e-06 2.7870284e-07)
(0.0012983632 1.8381158e-06 2.7181625e-07)
(0.0012935038 1.8037156e-06 2.6515395e-07)
(0.0012887402 1.7701708e-06 2.5874347e-07)
(0.0012840698 1.7375334e-06 2.5264998e-07)
(0.0012794889 1.7061219e-06 2.4701366e-07)
(0.0012749925 1.6769093e-06 2.4211282e-07)
(0.001270572 1.652467e-06 2.3851934e-07)
(0.0012662098 1.6393327e-06 2.3765963e-07)
(0.0012618709 1.6545761e-06 2.4458206e-07)
(0.0012574959 1.7463712e-06 2.7712442e-07)
(0.0012529717 2.0376712e-06 2.6526389e-07)
(0.0012433358 2.9514808e-06 1.3525326e-06)
(0.0095221617 0.00021179965 0.00022180582)
(0.009269783 0.00029872516 0.00026628967)
(0.0088657772 0.00031669844 0.00025526743)
(0.0083755729 0.000317438 0.00023864265)
(0.0078888426 0.00030841043 0.00021987851)
(0.0074276349 0.00028848207 0.00019850457)
(0.006988258 0.00026048391 0.00017617916)
(0.0065698164 0.00022855168 0.00015444521)
(0.0061756011 0.00019596771 0.00013413534)
(0.0058087146 0.00016504408 0.00011567593)
(0.0054706295 0.00013728621 9.9270838e-05)
(0.0051615551 0.00011345265 8.494783e-05)
(0.0048808654 9.3684506e-05 7.2600738e-05)
(0.0046272998 7.7712987e-05 6.2044901e-05)
(0.0043991196 6.5057025e-05 5.3064543e-05)
(0.0041942886 5.5163885e-05 4.544363e-05)
(0.0040106431 4.7493346e-05 3.8982754e-05)
(0.0038460219 4.1561376e-05 3.3506381e-05)
(0.0036983537 3.6958194e-05 2.8864074e-05)
(0.0035657105 3.3351175e-05 2.4928487e-05)
(0.0034463343 3.0479503e-05 2.1592134e-05)
(0.003338646 2.8144769e-05 1.8764099e-05)
(0.003241243 2.6200155e-05 1.6367138e-05)
(0.0031528887 2.4539753e-05 1.4335369e-05)
(0.0030724986 2.3088869e-05 1.2612489e-05)
(0.0029991252 2.1796114e-05 1.1150133e-05)
(0.0029319421 2.0626905e-05 9.9064815e-06)
(0.0028702292 1.9558163e-05 8.8458156e-06)
(0.0028133589 1.8574037e-05 7.9385382e-06)
(0.0027607855 1.7663621e-05 7.1598233e-06)
(0.0027120345 1.6818833e-05 6.4890352e-06)
(0.0026666927 1.6033064e-05 5.9090205e-06)
(0.0026243991 1.5301094e-05 5.405273e-06)
(0.0025848383 1.4618819e-05 4.9656523e-06)
(0.0025477347 1.3982712e-05 4.5801138e-06)
(0.0025128472 1.3389542e-05 4.2403274e-06)
(0.002479964 1.2836281e-05 3.939356e-06)
(0.0024488994 1.2320059e-05 3.6714255e-06)
(0.0024194896 1.1838145e-05 3.4317263e-06)
(0.00239159 1.1387942e-05 3.2162516e-06)
(0.0023650729 1.0966986e-05 3.02166e-06)
(0.0023398248 1.0572999e-05 2.8451737e-06)
(0.0023157449 1.0203873e-05 2.6844748e-06)
(0.0022927433 9.8575791e-06 2.5375943e-06)
(0.0022707398 9.5322154e-06 2.4028644e-06)
(0.002249662 9.2260292e-06 2.2788666e-06)
(0.0022294453 8.9374191e-06 2.1644004e-06)
(0.0022100312 8.6649286e-06 2.058438e-06)
(0.0021913666 8.4072373e-06 1.9601014e-06)
(0.0021734038 8.1631536e-06 1.8686315e-06)
(0.0021560989 7.9316209e-06 1.7833677e-06)
(0.0021394122 7.7117245e-06 1.7037082e-06)
(0.0021233074 7.5026021e-06 1.6291512e-06)
(0.0021077512 7.303379e-06 1.5592831e-06)
(0.0020927129 7.113188e-06 1.4937197e-06)
(0.0020781645 6.9314163e-06 1.4321049e-06)
(0.0020640799 6.7576056e-06 1.3741143e-06)
(0.0020504351 6.5912603e-06 1.3194615e-06)
(0.0020372075 6.4318789e-06 1.2678946e-06)
(0.0020243766 6.2790065e-06 1.2191871e-06)
(0.0020119231 6.1322412e-06 1.1731315e-06)
(0.001999829 5.9912203e-06 1.1295434e-06)
(0.0019880776 5.8556104e-06 1.0882503e-06)
(0.0019766531 5.7251046e-06 1.0490952e-06)
(0.0019655411 5.5994081e-06 1.0119367e-06)
(0.0019547276 5.4782452e-06 9.766454e-07)
(0.0019441999 5.3613911e-06 9.4310097e-07)
(0.0019339458 5.2486482e-06 9.1118976e-07)
(0.0019239539 5.139818e-06 8.808077e-07)
(0.0019142135 5.0347012e-06 8.5186047e-07)
(0.0019047144 4.9331176e-06 8.2425993e-07)
(0.001895447 4.8348999e-06 7.9792531e-07)
(0.0018864023 4.7398907e-06 7.7278103e-07)
(0.0018775718 4.6479436e-06 7.4875628e-07)
(0.0018689473 4.5589228e-06 7.2578742e-07)
(0.0018605211 4.4727014e-06 7.0381463e-07)
(0.0018522861 4.3891541e-06 6.8277786e-07)
(0.0018442353 4.3081685e-06 6.6262557e-07)
(0.0018363621 4.2296388e-06 6.433078e-07)
(0.0018286604 4.1534591e-06 6.2477656e-07)
(0.0018211241 4.0795286e-06 6.0698756e-07)
(0.0018137478 4.0077542e-06 5.8990054e-07)
(0.0018065261 3.938036e-06 5.734731e-07)
(0.001799454 3.8702787e-06 5.5766729e-07)
(0.0017925266 3.8043816e-06 5.4244719e-07)
(0.0017857396 3.7402378e-06 5.2777845e-07)
(0.0017790885 3.6777264e-06 5.1363025e-07)
(0.0017725695 3.6167265e-06 4.9997019e-07)
(0.0017661787 3.5571081e-06 4.8677548e-07)
(0.0017599128 3.4987618e-06 4.7402564e-07)
(0.0017537682 3.4416544e-06 4.6171016e-07)
(0.0017477416 3.3859636e-06 4.4983599e-07)
(0.0017418294 3.3323835e-06 4.3844208e-07)
(0.0017360272 3.282791e-06 4.2764677e-07)
(0.0017303281 3.2417777e-06 4.1776854e-07)
(0.0017247202 3.2200414e-06 4.0999068e-07)
(0.001719183 3.2421561e-06 4.0985006e-07)
(0.001713691 3.364344e-06 4.4114482e-07)
(0.0017081999 3.7072185e-06 4.7353289e-07)
(0.0016974804 4.4611187e-06 1.8634986e-06)
(0.0095012861 0.00013951169 0.00022248511)
(0.0092133349 0.00022408324 0.00026709763)
(0.0088018509 0.0002570094 0.00025529581)
(0.0083306071 0.00026690691 0.0002382081)
(0.0078754299 0.00026502158 0.00021939836)
(0.0074527063 0.0002529565 0.00019823245)
(0.0070564396 0.00023295893 0.00017634609)
(0.0066827538 0.00020836345 0.0001552305)
(0.006331873 0.00018203354 0.00013558338)
(0.0060047052 0.00015603739 0.00011769036)
(0.0057015056 0.00013180401 0.00010166909)
(0.0054220192 0.00011020724 8.7524314e-05)
(0.0051656909 9.16319e-05 7.5171986e-05)
(0.0049316845 7.6091186e-05 6.4472618e-05)
(0.0047188814 6.3363142e-05 5.526115e-05)
(0.0045259349 5.310494e-05 4.7366821e-05)
(0.0043513547 4.4932756e-05 4.0624899e-05)
(0.0041935865 3.8471359e-05 3.4883032e-05)
(0.0040510752 3.3381245e-05 3.0003995e-05)
(0.0039223115 2.937051e-05 2.5866182e-05)
(0.0038058643 2.6197262e-05 2.2362868e-05)
(0.0037004012 2.3666731e-05 1.9400962e-05)
(0.0036047 2.1625758e-05 1.6899611e-05)
(0.0035176529 1.9956327e-05 1.4788824e-05)
(0.0034382652 1.8569048e-05 1.3008104e-05)
(0.0033656513 1.7397362e-05 1.1504745e-05)
(0.0032990266 1.6392004e-05 1.0233523e-05)
(0.0032376995 1.5516242e-05 9.1565354e-06)
(0.0031810636 1.4743887e-05 8.2421117e-06)
(0.0031285885 1.4056151e-05 7.4635755e-06)
(0.0030798115 1.3438894e-05 6.7985198e-06)
(0.0030343294 1.2881149e-05 6.228222e-06)
(0.0029917905 1.2374494e-05 5.736983e-06)
(0.0029518882 1.1912419e-05 5.3116666e-06)
(0.0029143553 1.1489691e-05 4.9413537e-06)
(0.0028789586 1.1101927e-05 4.6170003e-06)
(0.0028454946 1.0745378e-05 4.3311221e-06)
(0.0028137847 1.0416774e-05 4.0775279e-06)
(0.0027836727 1.0113218e-05 3.8511086e-06)
(0.0027550209 9.8321222e-06 3.647646e-06)
(0.0027277081 9.57116e-06 3.4636647e-06)
(0.002701627 9.3282497e-06 3.2963016e-06)
(0.0026766823 9.1015139e-06 3.1431921e-06)
(0.0026527895 8.8892419e-06 3.0023825e-06)
(0.0026298729 8.6898914e-06 2.8722564e-06)
(0.0026078648 8.5020897e-06 2.7514711e-06)
(0.002586704 8.3246173e-06 2.6389106e-06)
(0.0025663358 8.1563956e-06 2.5336423e-06)
(0.0025467102 7.9964752e-06 2.434885e-06)
(0.002527782 7.844026e-06 2.3419791e-06)
(0.0025095101 7.6983366e-06 2.2543615e-06)
(0.0024918566 7.5588092e-06 2.171544e-06)
(0.0024747871 7.4248976e-06 2.0931119e-06)
(0.0024582699 7.2960203e-06 2.0187195e-06)
(0.0024422756 7.1714382e-06 1.9480684e-06)
(0.0024267775 7.0509292e-06 1.8808985e-06)
(0.0024117506 6.9343769e-06 1.8169521e-06)
(0.0023971715 6.8214903e-06 1.7560023e-06)
(0.0023830185 6.7119559e-06 1.6978519e-06)
(0.0023692714 6.6055385e-06 1.6423275e-06)
(0.0023559116 6.5020455e-06 1.5892715e-06)
(0.0023429214 6.4013089e-06 1.5385384e-06)
(0.0023302844 6.3031808e-06 1.4899943e-06)
(0.0023179851 6.2075253e-06 1.4435161e-06)
(0.0023060089 6.1142034e-06 1.3989933e-06)
(0.0022943424 6.0230679e-06 1.356325e-06)
(0.0022829727 5.9340585e-06 1.3154156e-06)
(0.0022718877 5.8471296e-06 1.2761707e-06)
(0.002261076 5.7622045e-06 1.2385025e-06)
(0.0022505267 5.6791968e-06 1.2023307e-06)
(0.0022402296 5.5980413e-06 1.1675831e-06)
(0.0022301752 5.5186726e-06 1.134189e-06)
(0.0022203542 5.4410309e-06 1.10208e-06)
(0.002210758 5.365062e-06 1.0711978e-06)
(0.0022013784 5.2907186e-06 1.041485e-06)
(0.0021922076 5.2179505e-06 1.0128822e-06)
(0.0021832381 5.1467117e-06 9.85338e-07)
(0.0021744628 5.0769584e-06 9.5880352e-07)
(0.0021658752 5.0086507e-06 9.3322988e-07)
(0.0021574688 4.9417444e-06 9.0857395e-07)
(0.0021492375 4.8761986e-06 8.8479158e-07)
(0.0021411756 4.8119656e-06 8.6183904e-07)
(0.0021332776 4.7489983e-06 8.3967911e-07)
(0.0021255383 4.6872389e-06 8.1827022e-07)
(0.0021179527 4.6266205e-06 7.9757667e-07)
(0.0021105161 4.5670676e-06 7.7755969e-07)
(0.0021032242 4.5084814e-06 7.5818417e-07)
(0.0020960727 4.4507539e-06 7.3941099e-07)
(0.0020890577 4.3937745e-06 7.2120366e-07)
(0.0020821756 4.3374549e-06 7.0352102e-07)
(0.002075423 4.2818114e-06 6.8632218e-07)
(0.0020687967 4.2271324e-06 6.6956189e-07)
(0.0020622937 4.1743539e-06 6.5320311e-07)
(0.002055911 4.1258144e-06 6.3726232e-07)
(0.0020496453 4.08683e-06 6.2198503e-07)
(0.0020434926 4.0687778e-06 6.0874673e-07)
(0.0020374483 4.0948775e-06 6.0452177e-07)
(0.0020315149 4.209426e-06 6.39878e-07)
(0.0020256647 4.4797473e-06 7.1688413e-07)
(0.0020144539 4.9057768e-06 2.269525e-06)
(0.0094902877 9.6726607e-05 0.00022289229)
(0.00917661 0.00016632333 0.00026788105)
(0.0087449456 0.00019969046 0.00025550648)
(0.0082664657 0.00021101604 0.00023762681)
(0.00781215 0.0002109939 0.0002181603)
(0.0073950862 0.0002028236 0.00019646328)
(0.0070087986 0.00018827265 0.00017418493)
(0.006648835 0.00016968865 0.0001528463)
(0.0063142174 0.00014929331 0.00013312182)
(0.0060045996 0.00012875288 0.0001152379)
(0.0057192201 0.00010923292 9.9256791e-05)
(0.0054570682 9.149007e-05 8.514891e-05)
(0.0052170782 7.59234e-05 7.2816211e-05)
(0.0049981259 6.2643331e-05 6.2119133e-05)
(0.0047989841 5.1561151e-05 5.2900048e-05)
(0.0046183234 4.2472278e-05 4.4997976e-05)
(0.0044547458 3.5118726e-05 3.8256897e-05)
(0.0043068267 2.9230543e-05 3.2530441e-05)
(0.0041731526 2.4550834e-05 2.7684339e-05)
(0.0040523509 2.0849111e-05 2.3597361e-05)
(0.0039431142 1.7926912e-05 2.0161345e-05)
(0.0038442168 1.56186e-05 1.7280682e-05)
(0.0037545253 1.3789364e-05 1.4871532e-05)
(0.0036730042 1.2331758e-05 1.2860863e-05)
(0.0035987172 1.1161537e-05 1.1185211e-05)
(0.0035308246 1.0213365e-05 9.788974e-06)
(0.0034685786 9.4380825e-06 8.625072e-06)
(0.0034113173 8.7971285e-06 7.6543154e-06)
(0.0033584589 8.2627212e-06 6.8439396e-06)
(0.0033094933 7.814082e-06 6.1664558e-06)
(0.0032639753 7.4348225e-06 5.5988453e-06)
(0.0032215172 7.1121287e-06 5.1219279e-06)
(0.0031817817 6.8360963e-06 4.7197282e-06)
(0.0031444758 6.5990211e-06 4.3789726e-06)
(0.0031093448 6.3947807e-06 4.0886808e-06)
(0.0030761678 6.2184054e-06 3.8397973e-06)
(0.0030447526 6.0657958e-06 3.6248778e-06)
(0.003014932 5.9335273e-06 3.4378173e-06)
(0.0029865602 5.8186973e-06 3.2736188e-06)
(0.0029595097 5.7188189e-06 3.1282049e-06)
(0.002933669 5.6317496e-06 2.9982619e-06)
(0.0029089401 5.555627e-06 2.8810982e-06)
(0.0028852364 5.4888225e-06 2.774534e-06)
(0.0028624815 5.4299127e-06 2.6768105e-06)
(0.0028406075 5.3776429e-06 2.5865063e-06)
(0.0028195538 5.3309232e-06 2.502473e-06)
(0.0027992664 5.2888086e-06 2.4237891e-06)
(0.0027796963 5.2504825e-06 2.349711e-06)
(0.0027607998 5.2152412e-06 2.2796376e-06)
(0.002742537 5.1824968e-06 2.2130848e-06)
(0.0027248717 5.1517657e-06 2.1496548e-06)
(0.0027077708 5.1226671e-06 2.0890228e-06)
(0.0026912041 5.0948942e-06 2.0309208e-06)
(0.0026751435 5.0680855e-06 1.9751366e-06)
(0.0026595636 5.0410656e-06 1.9215401e-06)
(0.0026444411 5.0142602e-06 1.8699673e-06)
(0.002629754 4.9880185e-06 1.8202523e-06)
(0.0026154815 4.9620742e-06 1.7722794e-06)
(0.0026016045 4.9361419e-06 1.725961e-06)
(0.0025881054 4.9100857e-06 1.6812144e-06)
(0.0025749674 4.8838324e-06 1.637966e-06)
(0.002562175 4.857339e-06 1.5961463e-06)
(0.0025497136 4.8305799e-06 1.5556923e-06)
(0.0025375693 4.8035385e-06 1.5165483e-06)
(0.0025257292 4.7761753e-06 1.4786604e-06)
(0.002514181 4.7483829e-06 1.4419862e-06)
(0.0025029134 4.7202747e-06 1.4064829e-06)
(0.0024919154 4.6919155e-06 1.372102e-06)
(0.0024811765 4.6632908e-06 1.3387978e-06)
(0.002470687 4.6344005e-06 1.3065292e-06)
(0.0024604377 4.6052673e-06 1.2752603e-06)
(0.0024504197 4.5759091e-06 1.2449543e-06)
(0.0024406247 4.5463464e-06 1.2155762e-06)
(0.0024310448 4.5166016e-06 1.187094e-06)
(0.0024216723 4.4866967e-06 1.1594727e-06)
(0.0024125001 4.4566519e-06 1.1326846e-06)
(0.0024035213 4.42649e-06 1.1066977e-06)
(0.0023947295 4.3962297e-06 1.0814838e-06)
(0.0023861184 4.3658896e-06 1.0570126e-06)
(0.0023776821 4.3354861e-06 1.0332596e-06)
(0.0023694149 4.3050325e-06 1.0101962e-06)
(0.0023613115 4.2745343e-06 9.8779526e-07)
(0.0023533667 4.2439926e-06 9.6603068e-07)
(0.0023455757 4.2133963e-06 9.4487462e-07)
(0.0023379338 4.1827195e-06 9.2429908e-07)
(0.0023304365 4.1519257e-06 9.0427623e-07)
(0.0023230798 4.1209533e-06 8.8477245e-07)
(0.0023158598 4.0897235e-06 8.6575197e-07)
(0.0023087726 4.0581552e-06 8.4717362e-07)
(0.002301815 4.0261915e-06 8.2898119e-07)
(0.0022949838 3.9938772e-06 8.1110845e-07)
(0.0022882766 3.9615306e-06 7.9346358e-07)
(0.002281691 3.9300768e-06 7.7594343e-07)
(0.0022752261 3.9016915e-06 7.5847766e-07)
(0.002268882 3.880941e-06 7.4124684e-07)
(0.0022626608 3.8766478e-06 7.2572614e-07)
(0.0022565686 3.9043047e-06 7.1957906e-07)
(0.0022506189 3.9866551e-06 7.5579943e-07)
(0.0022447715 4.1390999e-06 8.4931692e-07)
(0.002233564 4.2832249e-06 2.4122101e-06)
(0.0094843561 6.6886586e-05 0.00022303624)
(0.0091549219 0.00011904886 0.00026838771)
(0.0087072816 0.00014772496 0.00025588053)
(0.0082191888 0.00015892952 0.00023765677)
(0.0077602858 0.00016026049 0.00021787142)
(0.0073412804 0.00015505102 0.00019586613)
(0.0069552494 0.00014481701 0.00017327438)
(0.0065978366 0.00013121474 0.00015165024)
(0.0062677954 0.00011592881 0.00013169211)
(0.0059642872 0.00010028521 0.0001136244)
(0.0056860598 8.5214433e-05 9.7497523e-05)
(0.0054316726 7.1330407e-05 8.3272196e-05)
(0.0051997008 5.8984298e-05 7.0844883e-05)
(0.0049887459 4.8311754e-05 6.0073373e-05)
(0.0047973943 3.9291583e-05 5.079889e-05)
(0.0046242055 3.1804355e-05 4.2859902e-05)
(0.0044677269 2.5679086e-05 3.6099807e-05)
(0.0043265179 2.0725784e-05 3.0371291e-05)
(0.0041991724 1.6756344e-05 2.5538702e-05)
(0.004084339 1.3596837e-05 2.1479082e-05)
(0.0039807371 1.1093753e-05 1.8082323e-05)
(0.0038871692 9.1161633e-06 1.525079e-05)
(0.0038025288 7.5553795e-06 1.2898647e-05)
(0.003725804 6.3231332e-06 1.0950987e-05)
(0.0036560786 5.3488177e-06 9.3426787e-06)
(0.0035925304 4.5751802e-06 8.0166135e-06)
(0.0035344253 3.9620991e-06 6.9239481e-06)
(0.0034811131 3.4726277e-06 6.025073e-06)
(0.0034320221 3.0815197e-06 5.2862629e-06)
(0.0033866501 2.7702766e-06 4.67921e-06)
(0.0033445586 2.5236729e-06 4.180522e-06)
(0.0033053662 2.329585e-06 3.7707535e-06)
(0.0032687419 2.178498e-06 3.4337462e-06)
(0.0032343982 2.0629067e-06 3.1561115e-06)
(0.0032020863 1.9768096e-06 2.9267975e-06)
(0.0031715907 1.915318e-06 2.736703e-06)
(0.0031427248 1.8743813e-06 2.5783547e-06)
(0.0031153267 1.8506067e-06 2.4456284e-06)
(0.0030892563 1.8411261e-06 2.3335229e-06)
(0.0030643915 1.8434991e-06 2.2379677e-06)
(0.003040626 1.8556443e-06 2.1556634e-06)
(0.0030178671 1.8757802e-06 2.0839524e-06)
(0.0029960335 1.9023798e-06 2.0206946e-06)
(0.0029750538 1.9341344e-06 1.964181e-06)
(0.0029548649 1.9699151e-06 1.9130524e-06)
(0.0029354109 2.008761e-06 1.8662272e-06)
(0.0029166424 2.0498566e-06 1.8228521e-06)
(0.0028985148 2.0925094e-06 1.7822574e-06)
(0.0028809886 2.1361366e-06 1.7439144e-06)
(0.0028640277 2.1802696e-06 1.7074112e-06)
(0.0028476 2.22455e-06 1.6724152e-06)
(0.0028316758 2.2687597e-06 1.6386554e-06)
(0.0028162284 2.3128923e-06 1.6058717e-06)
(0.0028012324 2.3570795e-06 1.5738228e-06)
(0.0027866658 2.3978719e-06 1.5431896e-06)
(0.0027725089 2.4362352e-06 1.5136872e-06)
(0.0027587418 2.4734408e-06 1.484888e-06)
(0.002745346 2.5095352e-06 1.4567013e-06)
(0.002732305 2.5443514e-06 1.4291169e-06)
(0.0027196032 2.5777734e-06 1.4021123e-06)
(0.0027072261 2.6097247e-06 1.3756639e-06)
(0.0026951602 2.6401646e-06 1.3497565e-06)
(0.0026833928 2.6690856e-06 1.3243754e-06)
(0.0026719116 2.6965021e-06 1.2995094e-06)
(0.0026607054 2.7223711e-06 1.2751519e-06)
(0.0026497635 2.7463545e-06 1.2513131e-06)
(0.002639076 2.7689069e-06 1.227978e-06)
(0.0026286333 2.7901463e-06 1.2051292e-06)
(0.0026184262 2.8099935e-06 1.1827617e-06)
(0.0026084461 2.8284319e-06 1.1608705e-06)
(0.0025986849 2.8454944e-06 1.13945e-06)
(0.0025891348 2.8612183e-06 1.1184899e-06)
(0.0025797885 2.8756489e-06 1.0979869e-06)
(0.002570639 2.8888314e-06 1.0779286e-06)
(0.0025616795 2.900807e-06 1.0583089e-06)
(0.0025529038 2.9116194e-06 1.0391182e-06)
(0.0025443058 2.9213137e-06 1.0203484e-06)
(0.0025358796 2.9299304e-06 1.00199e-06)
(0.0025276198 2.9375072e-06 9.8403256e-07)
(0.002519521 2.9440802e-06 9.6646533e-07)
(0.0025115783 2.9496804e-06 9.4927959e-07)
(0.0025037869 2.9543368e-06 9.3246162e-07)
(0.0024961421 2.9580682e-06 9.1599969e-07)
(0.0024886396 2.9608809e-06 8.9988112e-07)
(0.0024812752 2.9627719e-06 8.8408481e-07)
(0.002474045 2.9637211e-06 8.685943e-07)
(0.0024669452 2.9636879e-06 8.533818e-07)
(0.0024599723 2.9626121e-06 8.3841463e-07)
(0.0024531231 2.9604298e-06 8.2364338e-07)
(0.0024463945 2.9570964e-06 8.0900456e-07)
(0.0024397839 2.9526511e-06 7.9439853e-07)
(0.0024332895 2.9473514e-06 7.7969468e-07)
(0.0024269099 2.9419122e-06 7.6470873e-07)
(0.0024206457 2.9379213e-06 7.4925887e-07)
(0.0024144993 2.9384192e-06 7.3336488e-07)
(0.0024084767 2.9484956e-06 7.1826468e-07)
(0.0024025877 2.9751253e-06 7.1113248e-07)
(0.002396846 3.0234618e-06 7.4331303e-07)
(0.0023911946 3.0808311e-06 8.3046546e-07)
(0.0023803644 3.0574246e-06 2.2999423e-06)
(0.0094810492 4.4090136e-05 0.00022308885)
(0.0091422796 7.9975483e-05 0.00026874495)
(0.0086839084 0.00010160921 0.00025628771)
(0.0081880903 0.00011101591 0.00023793456)
(0.0077246858 0.00011275118 0.00021798622)
(0.0073029895 0.00010953687 0.00019578738)
(0.0069155191 0.00010266029 0.00017296032)
(0.0065579578 9.3267236e-05 0.0001510852)
(0.006229001 8.2539594e-05 0.00013089045)
(0.005927585 7.1446833e-05 0.00011261412)
(0.0056522063 6.0673361e-05 9.6309238e-05)
(0.0054012005 5.0670808e-05 8.1936268e-05)
(0.0051729477 4.170661e-05 6.9390832e-05)
(0.004965887 3.3898117e-05 5.8529097e-05)
(0.0047784814 2.7249956e-05 4.9189878e-05)
(0.0046092054 2.1693074e-05 4.1208773e-05)
(0.0044565535 1.7117437e-05 3.4426144e-05)
(0.0043190553 1.3395519e-05 2.8691658e-05)
(0.0041952917 1.0397812e-05 2.3866804e-05)
(0.0040839086 8.0023312e-06 1.9826011e-05)
(0.0039836292 6.0997692e-06 1.645686e-05)
(0.0038932634 4.595662e-06 1.3659715e-05)
(0.0038117126 3.4106729e-06 1.1347012e-05)
(0.0037379734 2.4799287e-06 9.4422914e-06)
(0.0036711359 1.7515117e-06 7.8790896e-06)
(0.0036103859 1.1749046e-06 6.6010336e-06)
(0.0035549935 7.2233994e-07 5.5561208e-06)
(0.0035043108 3.7342438e-07 4.7060701e-06)
(0.0034577717 1.0569456e-07 4.0163449e-06)
(0.0034148763 -9.9090066e-08 3.4574138e-06)
(0.0033751872 -2.5333676e-07 3.0054962e-06)
(0.0033383243 -3.6640079e-07 2.6409739e-06)
(0.0033039576 -4.4577991e-07 2.3475731e-06)
(0.0032718009 -4.9748322e-07 2.1118265e-06)
(0.0032416065 -5.2634593e-07 1.9226421e-06)
(0.0032131599 -5.3630962e-07 1.7709151e-06)
(0.0031862758 -5.3063902e-07 1.6492023e-06)
(0.0031607936 -5.1206171e-07 1.5514409e-06)
(0.0031365743 -4.828718e-07 1.4727111e-06)
(0.0031134976 -4.4500708e-07 1.4090334e-06)
(0.0030914586 -4.0011218e-07 1.3572056e-06)
(0.0030703663 -3.4958096e-07 1.3146575e-06)
(0.0030501409 -2.9459543e-07 1.2793308e-06)
(0.0030307129 -2.3616914e-07 1.2495917e-06)
(0.0030120207 -1.7516526e-07 1.22414e-06)
(0.0029940105 -1.1232209e-07 1.2019536e-06)
(0.0029766343 -4.8269213e-08 1.1822237e-06)
(0.0029598495 1.6448122e-08 1.1643212e-06)
(0.0029436181 8.1353719e-08 1.1477526e-06)
(0.002927906 1.4602357e-07 1.1321241e-06)
(0.0029126825 2.1005759e-07 1.1171182e-06)
(0.0028979201 2.7304877e-07 1.1024394e-06)
(0.0028835935 3.3454128e-07 1.0876604e-06)
(0.0028696773 3.9432509e-07 1.0722031e-06)
(0.0028561514 4.5704979e-07 1.0590097e-06)
(0.0028429997 5.2060097e-07 1.0472578e-06)
(0.0028302035 5.8225437e-07 1.0356086e-06)
(0.0028177449 6.4164003e-07 1.0238007e-06)
(0.0028056084 6.9902059e-07 1.0118756e-06)
(0.0027937799 7.5456174e-07 9.9986906e-07)
(0.0027822461 8.0835013e-07 9.8780991e-07)
(0.0027709946 8.6046787e-07 9.7571923e-07)
(0.0027600137 9.1102442e-07 9.6360301e-07)
(0.0027492926 9.6019454e-07 9.5144707e-07)
(0.0027388207 1.0080051e-06 9.3926694e-07)
(0.0027285887 1.05285e-06 9.2746528e-07)
(0.0027185878 1.0958656e-06 9.1582848e-07)
(0.0027088089 1.137499e-06 9.0425328e-07)
(0.0026992438 1.1777676e-06 8.9275951e-07)
(0.0026898847 1.2166584e-06 8.8136587e-07)
(0.0026807244 1.2541704e-06 8.7007994e-07)
(0.0026717559 1.2903142e-06 8.5890639e-07)
(0.0026629726 1.3251074e-06 8.4785322e-07)
(0.0026543682 1.3585748e-06 8.3692277e-07)
(0.0026459367 1.390741e-06 8.2612053e-07)
(0.0026376723 1.421635e-06 8.1545283e-07)
(0.0026295698 1.4512895e-06 8.0491909e-07)
(0.0026216238 1.4797331e-06 7.9452307e-07)
(0.0026138294 1.5069912e-06 7.842628e-07)
(0.002606182 1.5330934e-06 7.7414093e-07)
(0.0025986769 1.5580644e-06 7.6415223e-07)
(0.0025913099 1.581922e-06 7.5429585e-07)
(0.0025840769 1.604682e-06 7.4456423e-07)
(0.0025769739 1.6263486e-06 7.3495268e-07)