/*--------------------------------*- C++ -*----------------------------------*\
  =========                 |
  \\      /  F ield         | OpenFOAM: The Open Source CFD Toolbox
   \\    /   O peration     | Website:  https://openfoam.org
    \\  /    A nd           | Version:  7
     \\/     M anipulation  |
\*---------------------------------------------------------------------------*/
FoamFile
{
    version     2.0;
    format      ascii;
    class       volVectorField;
    location    "1650/water";
    object      U;
}
// * * * * * * * * * * * * * * * * * * * * * * * * * * * * * * * * * * * * * //

dimensions      [0 1 -1 0 0 0 0];

internalField   nonuniform List<vector> 
54000
(
(0.0090020934 0.00020305973 0.00020444027)
(0.0083186447 0.00023622738 0.00023904411)
(0.0073695241 0.00021363852 0.00021763527)
(0.0063566114 0.00018488016 0.00018965819)
(0.0054486673 0.00015530836 0.00016048633)
(0.0046741594 0.00012529952 0.00013052937)
(0.0040193038 9.705261e-05 0.00010203017)
(0.0034740067 7.2578998e-05 7.7073287e-05)
(0.0030302461 5.2876125e-05 5.6738329e-05)
(0.0026757323 3.8068151e-05 4.1216512e-05)
(0.0023947254 2.7637703e-05 3.003714e-05)
(0.0021713898 2.0689034e-05 2.2336508e-05)
(0.0019919695 1.6236161e-05 1.7152703e-05)
(0.0018455015 1.3416236e-05 1.3643172e-05)
(0.0017237326 1.1582489e-05 1.1179121e-05)
(0.0016206928 1.0304892e-05 9.3455809e-06)
(0.0015321593 9.3257901e-06 7.8957157e-06)
(0.0014551546 8.505296e-06 6.6953105e-06)
(0.0013875459 7.7746333e-06 5.6760576e-06)
(0.0013277612 7.1034285e-06 4.8034858e-06)
(0.001274601 6.4798504e-06 4.0581563e-06)
(0.0012271179 5.8999461e-06 3.4261574e-06)
(0.0011845424 5.3625303e-06 2.8950713e-06)
(0.001146235 4.8670215e-06 2.4526299e-06)
(0.0011116558 4.4126003e-06 2.0869766e-06)
(0.0010803434 3.9980136e-06 1.786745e-06)
(0.0010519002 3.6214608e-06 1.5416129e-06)
(0.0010259819 3.2805944e-06 1.3421855e-06)
(0.001002289 2.9733955e-06 1.179731e-06)
(0.00098056199 2.697949e-06 1.0463198e-06)
(0.00096057571 2.4519208e-06 9.3658887e-07)
(0.00094213242 2.2325669e-06 8.4693393e-07)
(0.00092505792 2.0373869e-06 7.7316603e-07)
(0.00090920047 1.8640898e-06 7.1184258e-07)
(0.00089442818 1.7104626e-06 6.6046788e-07)
(0.0008806259 1.5743827e-06 6.1707401e-07)
(0.00086769294 1.4538612e-06 5.8005411e-07)
(0.00085554128 1.3470709e-06 5.4811428e-07)
(0.00084409387 1.2523493e-06 5.2023903e-07)
(0.00083328322 1.1681985e-06 4.9562757e-07)
(0.00082305015 1.0932613e-06 4.7365347e-07)
(0.00081334267 1.0262291e-06 4.5378279e-07)
(0.00080411486 9.6585897e-07 4.3554419e-07)
(0.00079532615 9.1131117e-07 4.1865053e-07)
(0.0007869407 8.6191717e-07 4.0290683e-07)
(0.00077892675 8.1708114e-07 3.881688e-07)
(0.00077125603 7.7627528e-07 3.7432102e-07)
(0.0007639033 7.3902611e-07 3.6127624e-07)
(0.00075684597 7.0491501e-07 3.4896338e-07)
(0.00075006373 6.7357572e-07 3.373317e-07)
(0.00074353821 6.4469386e-07 3.2633643e-07)
(0.00073725294 6.1802577e-07 3.1581808e-07)
(0.00073119313 5.9334822e-07 3.0574363e-07)
(0.00072534528 5.7041899e-07 2.9621223e-07)
(0.00071969687 5.4902446e-07 2.8716661e-07)
(0.00071423652 5.2901445e-07 2.7854303e-07)
(0.00070895385 5.1027348e-07 2.7031164e-07)
(0.00070383928 4.9268795e-07 2.6244875e-07)
(0.00069888397 4.761446e-07 2.5493247e-07)
(0.00069407976 4.6054968e-07 2.4774301e-07)
(0.00068941911 4.4582089e-07 2.408632e-07)
(0.00068489502 4.3188507e-07 2.3427582e-07)
(0.00068050098 4.1867947e-07 2.2796358e-07)
(0.00067623091 4.0614662e-07 2.2191131e-07)
(0.00067207915 3.9423493e-07 2.1610494e-07)
(0.00066804042 3.8289746e-07 2.1053113e-07)
(0.00066410976 3.720945e-07 2.0517718e-07)
(0.00066028251 3.617942e-07 2.0003183e-07)
(0.00065655429 3.5196273e-07 1.9508205e-07)
(0.00065292099 3.4256895e-07 1.9031771e-07)
(0.00064937872 3.3358619e-07 1.857288e-07)
(0.00064592384 3.2498763e-07 1.813058e-07)
(0.00064255288 3.167516e-07 1.7704108e-07)
(0.0006392626 3.0885703e-07 1.7292586e-07)
(0.00063604992 3.0128278e-07 1.6895127e-07)
(0.00063291192 2.9401303e-07 1.6511181e-07)
(0.00062984583 2.8703098e-07 1.6139862e-07)
(0.00062684904 2.8032167e-07 1.5780327e-07)
(0.00062391907 2.7387055e-07 1.5432176e-07)
(0.00062105358 2.6766582e-07 1.5094268e-07)
(0.00061825035 2.6169363e-07 1.4766127e-07)
(0.00061550726 2.5594457e-07 1.444694e-07)
(0.00061282235 2.5040681e-07 1.4135982e-07)
(0.00061019373 2.4506902e-07 1.3832438e-07)
(0.00060761965 2.3991904e-07 1.3535672e-07)
(0.00060509846 2.3494592e-07 1.3244859e-07)
(0.00060262862 2.3013558e-07 1.2959872e-07)
(0.00060020873 2.2546994e-07 1.2680436e-07)
(0.00059783744 2.2093257e-07 1.2407485e-07)
(0.00059551348 2.1649835e-07 1.2143451e-07)
(0.00059323555 2.1215e-07 1.1892934e-07)
(0.00059100214 2.0787221e-07 1.1666308e-07)
(0.00058881114 2.0369172e-07 1.148304e-07)
(0.00058665898 1.9973154e-07 1.1382047e-07)
(0.00058453869 1.9638509e-07 1.1441057e-07)
(0.00058243501 1.9487322e-07 1.1837333e-07)
(0.00058031396 1.9977501e-07 1.309433e-07)
(0.0005781161 2.2258476e-07 1.6397588e-07)
(0.00057566369 1.970697e-07 1.5080621e-07)
(0.00056906201 7.8896415e-07 7.532268e-07)
(0.0095316863 0.0003313754 0.00022336697)
(0.0092716504 0.00041105942 0.00027052342)
(0.0087756651 0.00040317187 0.00026060062)
(0.0081527518 0.00038218754 0.00024252081)
(0.0075302151 0.00035309574 0.00022101124)
(0.0069425889 0.00031541062 0.00019648834)
(0.006391209 0.00027309198 0.00017102969)
(0.0058791845 0.00023030694 0.00014652546)
(0.0054120202 0.00019001854 0.00012410997)
(0.0049926512 0.00015423459 0.00010436627)
(0.004620592 0.00012408347 8.7479018e-05)
(0.0042931332 9.9809403e-05 7.3327496e-05)
(0.0040063965 8.0956424e-05 6.1601503e-05)
(0.0037559538 6.667221e-05 5.1918794e-05)
(0.0035372541 5.59858e-05 4.3907444e-05)
(0.003345947 4.7992056e-05 3.7246645e-05)
(0.0031780884 4.1941709e-05 3.167753e-05)
(0.0030302311 3.7262445e-05 2.699792e-05)
(0.0028994324 3.3540996e-05 2.3051137e-05)
(0.0027832152 3.0490244e-05 1.9714593e-05)
(0.0026795075 2.7915736e-05 1.6890544e-05)
(0.0025865783 2.5687842e-05 1.4499383e-05)
(0.002502978 2.3720893e-05 1.2475015e-05)
(0.0024274871 2.1958431e-05 1.0761725e-05)
(0.0023590736 2.0362994e-05 9.3122316e-06)
(0.0022968589 1.8909454e-05 8.0861279e-06)
(0.0022400906 1.7580769e-05 7.0489622e-06)
(0.0021881216 1.6364899e-05 6.1714977e-06)
(0.0021403932 1.5251963e-05 5.4283131e-06)
(0.0020964214 1.4233849e-05 4.79735e-06)
(0.0020557868 1.330304e-05 4.2604821e-06)
(0.0020181236 1.2451985e-05 3.8027036e-06)
(0.0019831119 1.1673909e-05 3.4109613e-06)
(0.0019504718 1.0962755e-05 3.0744205e-06)
(0.0019199589 1.0312854e-05 2.7842605e-06)
(0.0018913593 9.7188341e-06 2.5331799e-06)
(0.0018644851 9.175645e-06 2.3150739e-06)
(0.0018391716 8.6785717e-06 2.1248316e-06)
(0.0018152735 8.2232421e-06 1.9581834e-06)
(0.0017926629 7.8056204e-06 1.8115673e-06)
(0.0017712268 7.4219976e-06 1.6820119e-06)
(0.001750865 7.0689372e-06 1.56707e-06)
(0.0017314886 6.7432689e-06 1.464742e-06)
(0.0017130186 6.4422725e-06 1.3732745e-06)
(0.0016953848 6.1635565e-06 1.2911582e-06)
(0.0016785241 5.9049754e-06 1.2171199e-06)
(0.00166238 5.6646084e-06 1.150084e-06)
(0.0016469019 5.4407246e-06 1.0891494e-06)
(0.001632044 5.2317774e-06 1.0335526e-06)
(0.0016177648 5.0363847e-06 9.8265276e-07)
(0.0016040271 4.8533232e-06 9.3589435e-07)
(0.0015907965 4.6815629e-06 8.9273665e-07)
(0.0015780424 4.5201583e-06 8.5278626e-07)
(0.0015657364 4.3681543e-06 8.1576975e-07)
(0.0015538526 4.2246824e-06 7.8138542e-07)
(0.0015423672 4.089059e-06 7.493447e-07)
(0.0015312583 3.9607292e-06 7.1941288e-07)
(0.0015205058 3.8391538e-06 6.9138729e-07)
(0.0015100909 3.7238125e-06 6.6509367e-07)
(0.0014999963 3.614243e-06 6.4037991e-07)
(0.0014902061 3.5100301e-06 6.1710878e-07)
(0.0014807053 3.4107985e-06 5.9516086e-07)
(0.00147148 3.3162115e-06 5.7442843e-07)
(0.0014625175 3.2259591e-06 5.5481383e-07)
(0.0014538055 3.1397552e-06 5.3623568e-07)
(0.0014453328 3.0573353e-06 5.186133e-07)
(0.0014370889 2.9784701e-06 5.0187786e-07)
(0.0014290637 2.9029584e-06 4.8596739e-07)
(0.001421248 2.8306037e-06 4.7082334e-07)
(0.001413633 2.7612176e-06 4.5639248e-07)
(0.0014062103 2.6946327e-06 4.4262847e-07)
(0.0013989723 2.6306904e-06 4.2948735e-07)
(0.0013919116 2.5692451e-06 4.1693041e-07)
(0.0013850211 2.5101634e-06 4.0492068e-07)
(0.0013782945 2.4533178e-06 3.9342574e-07)
(0.0013717253 2.3985951e-06 3.8241219e-07)
(0.0013653078 2.3458845e-06 3.7185282e-07)
(0.0013590364 2.2950852e-06 3.6171862e-07)
(0.0013529058 2.2461038e-06 3.5198469e-07)
(0.001346911 2.1988515e-06 3.4262698e-07)
(0.0013410472 2.1532414e-06 3.3362125e-07)
(0.0013353099 2.1091957e-06 3.2494527e-07)
(0.001329695 2.0666382e-06 3.1657902e-07)
(0.0013241983 2.0254887e-06 3.0850062e-07)
(0.001318816 1.9856739e-06 3.0069064e-07)
(0.0013135446 1.9471136e-06 2.9313036e-07)
(0.0013083808 1.9097272e-06 2.8580535e-07)
(0.0013033213 1.8734248e-06 2.7870241e-07)
(0.0012983632 1.8381164e-06 2.7181624e-07)
(0.0012935038 1.8037142e-06 2.651544e-07)
(0.0012887402 1.7701706e-06 2.5874343e-07)
(0.0012840698 1.7375333e-06 2.5265015e-07)
(0.0012794889 1.7061218e-06 2.4701368e-07)
(0.0012749925 1.6769095e-06 2.4211381e-07)
(0.001270572 1.6524684e-06 2.385188e-07)
(0.0012662098 1.6393335e-06 2.3765925e-07)
(0.0012618709 1.654577e-06 2.445821e-07)
(0.0012574959 1.746372e-06 2.7712439e-07)
(0.0012529717 2.0376722e-06 2.6526409e-07)
(0.0012433358 2.951483e-06 1.3525337e-06)
(0.0095221617 0.00021179965 0.00022180582)
(0.009269783 0.00029872516 0.00026628967)
(0.0088657772 0.00031669844 0.00025526743)
(0.0083755729 0.000317438 0.00023864265)
(0.0078888426 0.00030841043 0.00021987851)
(0.0074276349 0.00028848207 0.00019850458)
(0.006988258 0.00026048391 0.00017617916)
(0.0065698164 0.00022855168 0.00015444521)
(0.0061756011 0.00019596771 0.00013413534)
(0.0058087146 0.00016504408 0.00011567593)
(0.0054706295 0.00013728621 9.9270839e-05)
(0.0051615551 0.00011345265 8.4947831e-05)
(0.0048808654 9.3684507e-05 7.2600737e-05)
(0.0046272998 7.7712987e-05 6.20449e-05)
(0.0043991196 6.5057024e-05 5.3064542e-05)
(0.0041942886 5.5163886e-05 4.5443629e-05)
(0.0040106431 4.7493346e-05 3.8982754e-05)
(0.0038460219 4.1561376e-05 3.3506381e-05)
(0.0036983537 3.6958194e-05 2.8864075e-05)
(0.0035657105 3.3351175e-05 2.4928487e-05)
(0.0034463343 3.0479503e-05 2.1592135e-05)
(0.003338646 2.8144769e-05 1.8764099e-05)
(0.003241243 2.6200154e-05 1.6367138e-05)
(0.0031528887 2.4539752e-05 1.4335368e-05)
(0.0030724986 2.3088866e-05 1.2612489e-05)
(0.0029991252 2.1796112e-05 1.1150133e-05)
(0.0029319421 2.0626905e-05 9.9064818e-06)
(0.0028702292 1.9558163e-05 8.8458152e-06)
(0.0028133589 1.8574038e-05 7.9385381e-06)
(0.0027607855 1.7663622e-05 7.1598236e-06)
(0.0027120345 1.6818832e-05 6.4890358e-06)
(0.0026666927 1.6033065e-05 5.9090207e-06)
(0.0026243991 1.5301096e-05 5.4052729e-06)
(0.0025848382 1.4618819e-05 4.9656533e-06)
(0.0025477347 1.3982713e-05 4.5801153e-06)
(0.0025128472 1.3389543e-05 4.2403268e-06)
(0.002479964 1.2836281e-05 3.939356e-06)
(0.0024488994 1.2320058e-05 3.6714261e-06)
(0.0024194896 1.1838145e-05 3.4317264e-06)
(0.00239159 1.138794e-05 3.2162519e-06)
(0.0023650729 1.0966986e-05 3.0216608e-06)
(0.0023398248 1.0573e-05 2.8451738e-06)
(0.0023157449 1.0203875e-05 2.6844749e-06)
(0.0022927433 9.8575801e-06 2.5375944e-06)
(0.0022707398 9.5322152e-06 2.4028633e-06)
(0.002249662 9.2260283e-06 2.2788679e-06)
(0.0022294453 8.9374185e-06 2.1644001e-06)
(0.0022100312 8.6649276e-06 2.0584389e-06)
(0.0021913666 8.4072375e-06 1.9601014e-06)
(0.0021734038 8.1631544e-06 1.8686319e-06)
(0.0021560989 7.9316225e-06 1.7833677e-06)
(0.0021394122 7.7117245e-06 1.7037081e-06)
(0.0021233074 7.5026027e-06 1.6291519e-06)
(0.0021077512 7.3033806e-06 1.5592834e-06)
(0.0020927129 7.1131884e-06 1.4937196e-06)
(0.0020781645 6.9314157e-06 1.4321038e-06)
(0.0020640799 6.7576067e-06 1.374114e-06)
(0.0020504351 6.591263e-06 1.3194615e-06)
(0.0020372075 6.4318798e-06 1.2678954e-06)
(0.0020243766 6.2790074e-06 1.2191866e-06)
(0.0020119231 6.132241e-06 1.1731324e-06)
(0.001999829 5.9912194e-06 1.1295434e-06)
(0.0019880776 5.8556111e-06 1.0882501e-06)
(0.0019766531 5.7251046e-06 1.0490949e-06)
(0.0019655411 5.599409e-06 1.0119381e-06)
(0.0019547276 5.4782459e-06 9.7664593e-07)
(0.0019441999 5.3613894e-06 9.4310054e-07)
(0.0019339458 5.2486476e-06 9.111894e-07)
(0.0019239539 5.1398186e-06 8.8080697e-07)
(0.0019142135 5.0347015e-06 8.5186051e-07)
(0.0019047144 4.9331168e-06 8.2425969e-07)
(0.001895447 4.8348989e-06 7.9792434e-07)
(0.0018864023 4.7398886e-06 7.7278044e-07)
(0.0018775718 4.6479433e-06 7.4875704e-07)
(0.0018689473 4.5589221e-06 7.257884e-07)
(0.0018605211 4.4726992e-06 7.038141e-07)
(0.0018522861 4.3891523e-06 6.8277779e-07)
(0.0018442353 4.3081672e-06 6.6262602e-07)
(0.0018363621 4.2296377e-06 6.4330845e-07)
(0.0018286604 4.1534588e-06 6.2477768e-07)
(0.0018211241 4.0795294e-06 6.0698849e-07)
(0.0018137478 4.0077543e-06 5.899002e-07)
(0.0018065261 3.9380385e-06 5.7347332e-07)
(0.001799454 3.8702799e-06 5.5766782e-07)
(0.0017925266 3.8043835e-06 5.4244724e-07)
(0.0017857396 3.740237e-06 5.277791e-07)
(0.0017790885 3.677727e-06 5.1362996e-07)
(0.0017725695 3.6167267e-06 4.9997071e-07)
(0.0017661787 3.5571076e-06 4.8677492e-07)
(0.0017599128 3.4987602e-06 4.7402595e-07)
(0.0017537682 3.4416539e-06 4.6171064e-07)
(0.0017477416 3.3859632e-06 4.4983605e-07)
(0.0017418294 3.332381e-06 4.3844269e-07)
(0.0017360272 3.2827914e-06 4.2764583e-07)
(0.0017303281 3.2417774e-06 4.1776841e-07)
(0.0017247202 3.2200417e-06 4.0999026e-07)
(0.001719183 3.2421555e-06 4.0984865e-07)
(0.001713691 3.3643448e-06 4.4114358e-07)
(0.0017081999 3.7072204e-06 4.7353381e-07)
(0.0016974804 4.4611215e-06 1.8634993e-06)
(0.0095012861 0.00013951169 0.00022248511)
(0.0092133349 0.00022408324 0.00026709763)
(0.0088018509 0.0002570094 0.00025529581)
(0.0083306071 0.00026690691 0.0002382081)
(0.0078754299 0.00026502158 0.00021939837)
(0.0074527063 0.00025295651 0.00019823245)
(0.0070564396 0.00023295893 0.00017634609)
(0.0066827538 0.00020836345 0.0001552305)
(0.006331873 0.00018203353 0.00013558338)
(0.0060047052 0.00015603739 0.00011769036)
(0.0057015056 0.00013180401 0.00010166909)
(0.0054220192 0.00011020725 8.7524314e-05)
(0.0051656909 9.16319e-05 7.5171986e-05)
(0.0049316845 7.6091185e-05 6.4472618e-05)
(0.0047188814 6.3363141e-05 5.526115e-05)
(0.0045259349 5.3104939e-05 4.7366821e-05)
(0.0043513547 4.4932756e-05 4.06249e-05)
(0.0041935865 3.8471358e-05 3.4883032e-05)
(0.0040510752 3.3381245e-05 3.0003995e-05)
(0.0039223115 2.9370509e-05 2.5866182e-05)
(0.0038058643 2.6197263e-05 2.2362868e-05)
(0.0037004012 2.3666731e-05 1.9400962e-05)
(0.0036047 2.1625757e-05 1.6899609e-05)
(0.0035176529 1.9956327e-05 1.4788824e-05)
(0.0034382652 1.8569049e-05 1.3008105e-05)
(0.0033656513 1.7397362e-05 1.1504744e-05)
(0.0032990266 1.6392003e-05 1.0233523e-05)
(0.0032376995 1.5516241e-05 9.156534e-06)
(0.0031810636 1.4743889e-05 8.242111e-06)
(0.0031285885 1.4056151e-05 7.4635748e-06)
(0.0030798115 1.3438893e-05 6.7985206e-06)
(0.0030343294 1.288115e-05 6.2282219e-06)
(0.0029917905 1.2374495e-05 5.7369833e-06)
(0.0029518882 1.191242e-05 5.311667e-06)
(0.0029143553 1.1489692e-05 4.9413545e-06)
(0.0028789586 1.1101928e-05 4.6170011e-06)
(0.0028454946 1.0745379e-05 4.3311217e-06)
(0.0028137847 1.0416774e-05 4.0775289e-06)
(0.0027836727 1.0113219e-05 3.8511081e-06)
(0.0027550209 9.8321215e-06 3.6476456e-06)
(0.0027277081 9.5711601e-06 3.4636639e-06)
(0.002701627 9.3282484e-06 3.2962995e-06)
(0.0026766823 9.1015156e-06 3.1431909e-06)
(0.0026527895 8.8892439e-06 3.0023832e-06)
(0.0026298729 8.689892e-06 2.8722563e-06)
(0.0026078648 8.5020894e-06 2.7514708e-06)
(0.002586704 8.3246166e-06 2.6389102e-06)
(0.0025663358 8.1563945e-06 2.5336428e-06)
(0.0025467102 7.9964757e-06 2.4348846e-06)
(0.002527782 7.8440262e-06 2.3419791e-06)
(0.0025095101 7.6983366e-06 2.2543619e-06)
(0.0024918566 7.5588107e-06 2.171544e-06)
(0.0024747871 7.424898e-06 2.0931126e-06)
(0.0024582699 7.2960217e-06 2.0187191e-06)
(0.0024422756 7.1714399e-06 1.9480688e-06)
(0.0024267775 7.0509292e-06 1.8808985e-06)
(0.0024117506 6.9343781e-06 1.8169525e-06)
(0.0023971715 6.821491e-06 1.7560027e-06)
(0.0023830185 6.7119565e-06 1.697853e-06)
(0.0023692714 6.60554e-06 1.6423289e-06)
(0.0023559116 6.5020446e-06 1.5892722e-06)
(0.0023429214 6.4013084e-06 1.5385386e-06)
(0.0023302844 6.3031811e-06 1.4899937e-06)
(0.0023179851 6.2075249e-06 1.4435155e-06)
(0.0023060089 6.1142038e-06 1.3989937e-06)
(0.0022943424 6.0230694e-06 1.3563253e-06)
(0.0022829727 5.9340583e-06 1.3154159e-06)
(0.0022718877 5.8471291e-06 1.2761705e-06)
(0.002261076 5.7622026e-06 1.2385016e-06)
(0.0022505267 5.6791964e-06 1.2023305e-06)
(0.0022402296 5.5980399e-06 1.1675827e-06)
(0.0022301752 5.5186709e-06 1.134188e-06)
(0.0022203542 5.4410282e-06 1.1020815e-06)
(0.002210758 5.3650625e-06 1.0711994e-06)
(0.0022013784 5.2907175e-06 1.0414856e-06)
(0.0021922076 5.2179473e-06 1.0128822e-06)
(0.0021832381 5.1467084e-06 9.8533736e-07)
(0.0021744628 5.0769566e-06 9.5880327e-07)
(0.0021658752 5.0086506e-06 9.3323082e-07)
(0.0021574688 4.9417451e-06 9.0857496e-07)
(0.0021492375 4.876199e-06 8.847914e-07)
(0.0021411756 4.8119671e-06 8.6183921e-07)
(0.0021332776 4.7489995e-06 8.3967909e-07)
(0.0021255383 4.6872394e-06 8.1827076e-07)
(0.0021179527 4.6266216e-06 7.9757736e-07)
(0.0021105161 4.5670666e-06 7.7756086e-07)
(0.0021032242 4.5084814e-06 7.5818534e-07)
(0.0020960727 4.4507549e-06 7.3941208e-07)
(0.0020890577 4.3937752e-06 7.2120337e-07)
(0.0020821756 4.3374545e-06 7.0352168e-07)
(0.002075423 4.281811e-06 6.8632075e-07)
(0.0020687967 4.2271328e-06 6.6956095e-07)
(0.0020622937 4.174354e-06 6.5320393e-07)
(0.002055911 4.1258149e-06 6.3726245e-07)
(0.0020496453 4.086829e-06 6.2198487e-07)
(0.0020434926 4.0687773e-06 6.0874692e-07)
(0.0020374483 4.0948774e-06 6.0452274e-07)
(0.0020315149 4.2094264e-06 6.3987789e-07)
(0.0020256647 4.4797487e-06 7.1688466e-07)
(0.0020144539 4.9057769e-06 2.2695254e-06)
(0.0094902877 9.6726608e-05 0.00022289229)
(0.00917661 0.00016632333 0.00026788105)
(0.0087449456 0.00019969046 0.00025550648)
(0.0082664657 0.00021101604 0.00023762681)
(0.00781215 0.0002109939 0.0002181603)
(0.0073950862 0.0002028236 0.00019646328)
(0.0070087986 0.00018827265 0.00017418493)
(0.006648835 0.00016968865 0.0001528463)
(0.0063142174 0.00014929331 0.00013312182)
(0.0060045996 0.00012875288 0.0001152379)
(0.0057192201 0.00010923292 9.9256791e-05)
(0.0054570682 9.1490071e-05 8.5148911e-05)
(0.0052170782 7.5923399e-05 7.2816212e-05)
(0.0049981259 6.264333e-05 6.2119133e-05)
(0.0047989841 5.156115e-05 5.2900048e-05)
(0.0046183234 4.2472276e-05 4.4997977e-05)
(0.0044547458 3.5118724e-05 3.8256897e-05)
(0.0043068267 2.9230542e-05 3.2530442e-05)
(0.0041731526 2.4550833e-05 2.7684339e-05)
(0.0040523509 2.084911e-05 2.3597362e-05)
(0.0039431142 1.7926912e-05 2.0161345e-05)
(0.0038442168 1.5618599e-05 1.7280682e-05)
(0.0037545253 1.3789365e-05 1.487153e-05)
(0.0036730042 1.233176e-05 1.2860862e-05)
(0.0035987172 1.1161541e-05 1.1185211e-05)
(0.0035308246 1.0213367e-05 9.7889737e-06)
(0.0034685786 9.4380827e-06 8.6250719e-06)
(0.0034113173 8.7971281e-06 7.6543156e-06)
(0.0033584589 8.262721e-06 6.8439391e-06)
(0.0033094933 7.8140815e-06 6.1664546e-06)
(0.0032639753 7.4348236e-06 5.598845e-06)
(0.0032215172 7.1121283e-06 5.1219275e-06)
(0.0031817817 6.8360954e-06 4.7197279e-06)
(0.0031444758 6.599021e-06 4.3789741e-06)
(0.0031093448 6.3947796e-06 4.0886813e-06)
(0.0030761678 6.2184043e-06 3.8397977e-06)
(0.0030447526 6.0657955e-06 3.6248787e-06)
(0.003014932 5.9335273e-06 3.4378185e-06)
(0.0029865602 5.8186973e-06 3.2736179e-06)
(0.0029595097 5.7188194e-06 3.1282058e-06)
(0.002933669 5.6317498e-06 2.9982617e-06)
(0.0029089401 5.5556242e-06 2.8810969e-06)
(0.0028852364 5.4888232e-06 2.7745334e-06)
(0.0028624815 5.4299136e-06 2.6768101e-06)
(0.0028406075 5.3776441e-06 2.5865047e-06)
(0.0028195538 5.3309238e-06 2.502473e-06)
(0.0027992664 5.2888084e-06 2.4237889e-06)
(0.0027796963 5.2504809e-06 2.3497114e-06)
(0.0027607998 5.2152408e-06 2.2796373e-06)
(0.002742537 5.1824965e-06 2.2130845e-06)
(0.0027248717 5.1517653e-06 2.149654e-06)
(0.0027077708 5.1226679e-06 2.0890227e-06)
(0.002691204 5.0948952e-06 2.0309205e-06)
(0.0026751435 5.0680859e-06 1.9751359e-06)
(0.0026595636 5.0410648e-06 1.92154e-06)
(0.0026444411 5.0142594e-06 1.8699668e-06)
(0.002629754 4.9880185e-06 1.820251e-06)
(0.0026154815 4.9620736e-06 1.7722792e-06)
(0.0026016045 4.9361407e-06 1.7259604e-06)
(0.0025881054 4.9100854e-06 1.6812148e-06)
(0.0025749674 4.8838336e-06 1.6379655e-06)
(0.002562175 4.8573401e-06 1.5961456e-06)
(0.0025497136 4.8305812e-06 1.5556924e-06)
(0.0025375693 4.803539e-06 1.5165475e-06)
(0.0025257292 4.7761757e-06 1.4786604e-06)
(0.002514181 4.748384e-06 1.4419859e-06)
(0.0025029134 4.7202756e-06 1.4064837e-06)
(0.0024919154 4.6919146e-06 1.3721022e-06)
(0.0024811765 4.6632895e-06 1.3387975e-06)
(0.002470687 4.6344007e-06 1.3065293e-06)
(0.0024604377 4.6052669e-06 1.2752609e-06)
(0.0024504197 4.5759082e-06 1.2449544e-06)
(0.0024406247 4.5463454e-06 1.2155759e-06)
(0.0024310448 4.516602e-06 1.1870925e-06)
(0.0024216723 4.4866961e-06 1.1594729e-06)
(0.0024125001 4.4566513e-06 1.1326846e-06)
(0.0024035213 4.4264889e-06 1.1066971e-06)
(0.0023947295 4.3962289e-06 1.081483e-06)
(0.0023861184 4.3658897e-06 1.0570134e-06)
(0.0023776821 4.3354865e-06 1.0332595e-06)
(0.0023694149 4.3050326e-06 1.0101958e-06)
(0.0023613115 4.2745354e-06 9.8779596e-07)
(0.0023533667 4.2439935e-06 9.6603011e-07)
(0.0023455757 4.2133971e-06 9.4487439e-07)
(0.0023379338 4.1827199e-06 9.2429946e-07)
(0.0023304365 4.1519252e-06 9.0427706e-07)
(0.0023230798 4.1209536e-06 8.8477234e-07)
(0.0023158598 4.0897247e-06 8.6575208e-07)
(0.0023087726 4.0581567e-06 8.4717292e-07)
(0.002301815 4.0261922e-06 8.2898077e-07)
(0.0022949838 3.9938769e-06 8.1110748e-07)
(0.0022882766 3.9615308e-06 7.9346301e-07)
(0.002281691 3.9300791e-06 7.7594336e-07)
(0.0022752261 3.9016916e-06 7.5847811e-07)
(0.002268882 3.8809404e-06 7.4124671e-07)
(0.0022626608 3.8766473e-06 7.2572685e-07)
(0.0022565686 3.9043039e-06 7.1957959e-07)
(0.0022506189 3.9866545e-06 7.5579873e-07)
(0.0022447715 4.139099e-06 8.4931757e-07)
(0.002233564 4.2832239e-06 2.412211e-06)
(0.0094843561 6.6886586e-05 0.00022303624)
(0.0091549219 0.00011904886 0.00026838771)
(0.0087072816 0.00014772497 0.00025588053)
(0.0082191888 0.00015892952 0.00023765677)
(0.0077602858 0.00016026049 0.00021787143)
(0.0073412804 0.00015505102 0.00019586613)
(0.0069552494 0.00014481701 0.00017327438)
(0.0065978366 0.00013121474 0.00015165024)
(0.0062677954 0.00011592881 0.00013169211)
(0.0059642872 0.00010028521 0.0001136244)
(0.0056860598 8.521443e-05 9.7497522e-05)
(0.0054316726 7.1330407e-05 8.3272195e-05)
(0.0051997008 5.8984297e-05 7.0844883e-05)
(0.0049887459 4.8311753e-05 6.0073374e-05)
(0.0047973943 3.9291582e-05 5.079889e-05)
(0.0046242055 3.1804353e-05 4.2859903e-05)
(0.0044677269 2.5679085e-05 3.6099808e-05)
(0.0043265179 2.0725785e-05 3.037129e-05)
(0.0041991724 1.6756344e-05 2.5538702e-05)
(0.004084339 1.3596837e-05 2.1479082e-05)
(0.0039807371 1.1093753e-05 1.8082324e-05)
(0.0038871692 9.1161629e-06 1.525079e-05)
(0.0038025288 7.5553791e-06 1.2898647e-05)
(0.003725804 6.3231355e-06 1.0950986e-05)
(0.0036560786 5.3488209e-06 9.3426783e-06)
(0.0035925304 4.5751828e-06 8.0166139e-06)
(0.0035344253 3.9621011e-06 6.9239489e-06)
(0.0034811131 3.4726284e-06 6.0250736e-06)
(0.0034320221 3.0815196e-06 5.2862631e-06)
(0.0033866501 2.7702768e-06 4.6792103e-06)
(0.0033445586 2.5236731e-06 4.1805222e-06)
(0.0033053662 2.329584e-06 3.7707527e-06)
(0.0032687419 2.1784965e-06 3.4337454e-06)
(0.0032343982 2.0629047e-06 3.1561117e-06)
(0.0032020863 1.9768072e-06 2.9267974e-06)
(0.0031715907 1.9153157e-06 2.7367039e-06)
(0.0031427248 1.8743788e-06 2.5783561e-06)
(0.0031153267 1.8506066e-06 2.4456295e-06)
(0.0030892563 1.8411248e-06 2.3335223e-06)
(0.0030643915 1.8434984e-06 2.2379671e-06)
(0.003040626 1.8556438e-06 2.1556634e-06)
(0.0030178671 1.8757803e-06 2.0839516e-06)
(0.0029960335 1.9023807e-06 2.0206939e-06)
(0.0029750538 1.9341339e-06 1.9641828e-06)
(0.0029548648 1.9699158e-06 1.9130527e-06)
(0.0029354109 2.0087631e-06 1.8662271e-06)
(0.0029166424 2.0498559e-06 1.8228523e-06)
(0.0028985148 2.0925089e-06 1.7822579e-06)
(0.0028809886 2.1361374e-06 1.7439148e-06)
(0.0028640277 2.1802695e-06 1.7074101e-06)
(0.0028475999 2.224551e-06 1.6724142e-06)
(0.0028316758 2.2687595e-06 1.638655e-06)
(0.0028162284 2.3128933e-06 1.6058711e-06)
(0.0028012324 2.3570784e-06 1.5738224e-06)
(0.0027866658 2.3978699e-06 1.5431896e-06)
(0.0027725089 2.4362349e-06 1.5136875e-06)
(0.0027587418 2.4734415e-06 1.4848879e-06)
(0.002745346 2.5095354e-06 1.4567012e-06)
(0.002732305 2.5443512e-06 1.4291169e-06)
(0.0027196032 2.5777729e-06 1.4021123e-06)
(0.0027072261 2.6097263e-06 1.3756642e-06)
(0.0026951602 2.6401667e-06 1.3497565e-06)
(0.0026833928 2.6690879e-06 1.3243755e-06)
(0.0026719116 2.6965038e-06 1.2995102e-06)
(0.0026607054 2.7223731e-06 1.2751525e-06)
(0.0026497635 2.7463552e-06 1.2513134e-06)
(0.002639076 2.7689081e-06 1.2279781e-06)
(0.0026286333 2.7901472e-06 1.2051284e-06)
(0.0026184262 2.8099938e-06 1.1827607e-06)
(0.0026084461 2.8284328e-06 1.1608702e-06)
(0.0025986849 2.845494e-06 1.1394498e-06)
(0.0025891348 2.8612173e-06 1.1184898e-06)
(0.0025797885 2.8756484e-06 1.0979859e-06)
(0.002570639 2.8888306e-06 1.0779287e-06)
(0.0025616795 2.9008068e-06 1.058309e-06)
(0.0025529038 2.9116195e-06 1.0391196e-06)
(0.0025443058 2.9213141e-06 1.0203492e-06)
(0.0025358796 2.9299312e-06 1.0019906e-06)
(0.0025276198 2.9375061e-06 9.8403221e-07)
(0.002519521 2.944078e-06 9.6646483e-07)
(0.0025115783 2.9496794e-06 9.4927876e-07)
(0.0025037869 2.9543376e-06 9.3246161e-07)
(0.0024961421 2.9580686e-06 9.160011e-07)
(0.0024886396 2.9608816e-06 8.9988076e-07)
(0.0024812752 2.9627731e-06 8.8408537e-07)
(0.002474045 2.9637216e-06 8.6859432e-07)
(0.0024669452 2.9636885e-06 8.5338255e-07)
(0.0024599723 2.9626121e-06 8.3841421e-07)
(0.0024531231 2.9604304e-06 8.2364337e-07)
(0.0024463945 2.957097e-06 8.0900405e-07)
(0.0024397839 2.9526508e-06 7.9439879e-07)
(0.0024332895 2.9473515e-06 7.7969336e-07)
(0.0024269099 2.9419129e-06 7.6470861e-07)
(0.0024206457 2.9379219e-06 7.4925897e-07)
(0.0024144993 2.9384196e-06 7.3336446e-07)
(0.0024084767 2.948495e-06 7.1826336e-07)
(0.0024025877 2.9751243e-06 7.1113309e-07)
(0.002396846 3.0234599e-06 7.4331389e-07)
(0.0023911946 3.0808289e-06 8.3046549e-07)
(0.0023803644 3.0574254e-06 2.2999436e-06)
(0.0094810492 4.4090136e-05 0.00022308885)
(0.0091422796 7.9975484e-05 0.00026874495)
(0.0086839084 0.00010160921 0.00025628771)
(0.0081880903 0.00011101591 0.00023793456)
(0.0077246858 0.00011275118 0.00021798622)
(0.0073029895 0.00010953687 0.00019578738)
(0.0069155191 0.00010266029 0.00017296032)
(0.0065579578 9.3267236e-05 0.0001510852)
(0.006229001 8.2539594e-05 0.00013089045)
(0.005927585 7.1446832e-05 0.00011261412)
(0.0056522063 6.0673359e-05 9.6309239e-05)
(0.0054012005 5.0670808e-05 8.1936268e-05)
(0.0051729477 4.1706608e-05 6.9390831e-05)
(0.004965887 3.3898115e-05 5.8529097e-05)
(0.0047784814 2.7249955e-05 4.9189879e-05)
(0.0046092054 2.1693073e-05 4.1208774e-05)
(0.0044565535 1.7117437e-05 3.4426144e-05)
(0.0043190553 1.3395519e-05 2.8691658e-05)
(0.0041952917 1.0397812e-05 2.3866804e-05)
(0.0040839086 8.0023313e-06 1.9826011e-05)
(0.0039836292 6.0997701e-06 1.6456861e-05)
(0.0038932634 4.5956623e-06 1.3659716e-05)
(0.0038117126 3.410673e-06 1.1347013e-05)
(0.0037379734 2.4799299e-06 9.4422911e-06)
(0.0036711359 1.7515129e-06 7.879088e-06)
(0.0036103859 1.1749058e-06 6.6010319e-06)
(0.0035549935 7.2234142e-07 5.5561188e-06)
(0.0035043108 3.7342628e-07 4.706069e-06)
(0.0034577717 1.05697e-07 4.0163439e-06)
(0.0034148763 -9.908854e-08 3.457415e-06)
(0.0033751872 -2.5333538e-07 3.0054966e-06)
(0.0033383243 -3.6640033e-07 2.6409751e-06)
(0.0033039576 -4.4577947e-07 2.347573e-06)
(0.0032718009 -4.9748476e-07 2.1118266e-06)
(0.0032416065 -5.2634686e-07 1.922642e-06)
(0.0032131599 -5.3631244e-07 1.7709153e-06)
(0.0031862758 -5.3064106e-07 1.6492029e-06)
(0.0031607936 -5.1206235e-07 1.5514409e-06)
(0.0031365743 -4.8287233e-07 1.4727099e-06)
(0.0031134976 -4.4500772e-07 1.4090328e-06)
(0.0030914586 -4.0011166e-07 1.357206e-06)
(0.0030703663 -3.4957824e-07 1.3146563e-06)
(0.0030501409 -2.9459447e-07 1.2793309e-06)
(0.0030307129 -2.3616993e-07 1.2495915e-06)
(0.0030120207 -1.7516671e-07 1.2241406e-06)
(0.0029940105 -1.1232056e-07 1.2019529e-06)
(0.0029766343 -4.8269485e-08 1.1822243e-06)
(0.0029598495 1.64494e-08 1.1643218e-06)
(0.0029436181 8.1354897e-08 1.1477524e-06)
(0.002927906 1.4602302e-07 1.1321251e-06)
(0.0029126825 2.100581e-07 1.1171187e-06)
(0.0028979201 2.7304903e-07 1.102439e-06)
(0.0028835935 3.3454183e-07 1.0876606e-06)
(0.0028696773 3.9432307e-07 1.0722029e-06)
(0.0028561514 4.5704909e-07 1.0590091e-06)
(0.0028429997 5.2059921e-07 1.0472574e-06)
(0.0028302035 5.8225451e-07 1.0356071e-06)
(0.0028177449 6.4163961e-07 1.0238011e-06)
(0.0028056084 6.9902017e-07 1.0118757e-06)
(0.0027937799 7.5456209e-07 9.9986897e-07)
(0.0027822461 8.0835034e-07 9.8781099e-07)
(0.0027709946 8.6046946e-07 9.7571864e-07)
(0.0027600137 9.1102529e-07 9.636018e-07)
(0.0027492926 9.6019442e-07 9.5144688e-07)
(0.0027388207 1.0080054e-06 9.3926576e-07)
(0.0027285887 1.0528497e-06 9.2746482e-07)
(0.0027185878 1.0958673e-06 9.1582891e-07)
(0.0027088089 1.137501e-06 9.0425298e-07)
(0.0026992438 1.1777683e-06 8.9275888e-07)
(0.0026898847 1.2166586e-06 8.8136594e-07)
(0.0026807244 1.2541709e-06 8.7007966e-07)
(0.0026717559 1.2903134e-06 8.589065e-07)
(0.0026629726 1.3251068e-06 8.4785295e-07)
(0.0026543682 1.3585724e-06 8.3692292e-07)
(0.0026459367 1.3907404e-06 8.2612142e-07)
(0.0026376723 1.421635e-06 8.1545362e-07)
(0.0026295698 1.4512893e-06 8.0491974e-07)
(0.0026216238 1.479732e-06 7.9452233e-07)
(0.0026138294 1.506991e-06 7.8426295e-07)
(0.002606182 1.5330924e-06 7.7414018e-07)
(0.0025986769 1.5580631e-06 7.6415225e-07)
(0.0025913099 1.5819218e-06 7.5429551e-07)
(0.0025840769 1.604682e-06 7.4456494e-07)
(0.0025769739 1.6263501e-06 7.3495209e-07)