/*--------------------------------*- C++ -*----------------------------------*\
  =========                 |
  \\      /  F ield         | OpenFOAM: The Open Source CFD Toolbox
   \\    /   O peration     | Website:  https://openfoam.org
    \\  /    A nd           | Version:  7
     \\/     M anipulation  |
\*---------------------------------------------------------------------------*/
FoamFile
{
    version     2.0;
    format      ascii;
    class       surfaceScalarField;
    location    "2400/water";
    object      phi;
}
// * * * * * * * * * * * * * * * * * * * * * * * * * * * * * * * * * * * * * //

dimensions      [1 0 -1 0 0 0 0];

internalField   nonuniform List<scalar> 
156660
(
9.905724e-05
6.0010402e-06
6.0528092e-06
8.6847498e-05
6.0555113e-06
6.1542307e-06
7.5687891e-05
5.5111363e-06
5.6484701e-06
6.5441704e-05
5.0404181e-06
5.2057689e-06
5.6267661e-05
4.4956436e-06
4.6783991e-06
4.8318019e-05
3.8797648e-06
4.0698777e-06
4.1624776e-05
3.2524449e-06
3.4407982e-06
3.6124897e-05
2.660462e-06
2.839417e-06
3.1692235e-05
2.1345127e-06
2.2981489e-06
2.8162841e-05
1.6926975e-06
1.8366964e-06
2.5361437e-05
1.3399933e-06
1.4614113e-06
2.3124664e-05
1.0698477e-06
1.1669256e-06
2.1315127e-05
8.6875417e-07
9.4078227e-07
1.9825714e-05
7.2110064e-07
7.6831272e-07
1.8577278e-05
6.1248244e-07
6.3595307e-07
1.7513255e-05
5.312522e-07
5.3277147e-07
1.6593744e-05
4.6879724e-07
4.5071346e-07
1.5790433e-05
4.1913716e-07
3.8417387e-07
1.5082784e-05
3.7829071e-07
3.2935848e-07
1.4455417e-05
3.4367127e-07
2.8369563e-07
1.3896409e-05
3.1361409e-07
2.4539331e-07
1.339622e-05
2.870445e-07
2.1314452e-07
1.2947015e-05
2.6326036e-07
1.859451e-07
1.2542237e-05
2.4179368e-07
1.6298459e-07
1.2176318e-05
2.2232208e-07
1.4359688e-07
1.1844484e-05
2.046148e-07
1.2721881e-07
1.1542609e-05
1.8849494e-07
1.1337974e-07
1.1267116e-05
1.7381574e-07
1.0167793e-07
1.1014892e-05
1.6046271e-07
9.1760818e-08
1.0783252e-05
1.4833966e-07
8.330056e-08
1.0569851e-05
1.3734901e-07
7.6052148e-08
1.0372614e-05
1.2738864e-07
6.9848315e-08
1.0189731e-05
1.1836808e-07
6.4514831e-08
1.001963e-05
1.1020446e-07
5.9896616e-08
9.8609388e-06
1.0281922e-07
5.5871625e-08
9.7124594e-06
9.6137971e-08
5.2341365e-08
9.5731439e-06
9.0091188e-08
4.9224363e-08
9.4420759e-06
8.4614472e-08
4.6453589e-08
9.3184531e-06
7.964867e-08
4.3974136e-08
9.2015723e-06
7.5139719e-08
4.1741089e-08
9.0908166e-06
7.1038159e-08
3.9717566e-08
8.9856431e-06
6.7301151e-08
3.7872302e-08
8.8855707e-06
6.3894282e-08
3.6178118e-08
8.7901757e-06
6.0780114e-08
3.4614952e-08
8.6990829e-06
5.7926175e-08
3.3166639e-08
8.611959e-06
5.5303725e-08
3.1820111e-08
8.5285072e-06
5.288743e-08
3.0564412e-08
8.4484618e-06
5.0655065e-08
2.9390281e-08
8.3715848e-06
4.858704e-08
2.8290004e-08
8.2976614e-06
4.6666179e-08
2.7257184e-08
8.2264975e-06
4.4877483e-08
2.628641e-08
8.1579202e-06
4.3208749e-08
2.5368525e-08
8.0917731e-06
4.1649027e-08
2.4498053e-08
8.0279107e-06
4.0186988e-08
2.3675345e-08
7.9662005e-06
3.8812686e-08
2.2897537e-08
7.9065219e-06
3.7518431e-08
2.2160231e-08
7.8487639e-06
3.6297845e-08
2.1460159e-08
7.7928241e-06
3.5145157e-08
2.0794587e-08
7.7386083e-06
3.4054676e-08
2.0161177e-08
7.6860293e-06
3.3021363e-08
1.9557727e-08
7.6350062e-06
3.204078e-08
1.8982271e-08
7.5854641e-06
3.1109063e-08
1.8433067e-08
7.537333e-06
3.0222619e-08
1.7908486e-08
7.4905478e-06
2.9378254e-08
1.7407013e-08
7.4450476e-06
2.8573023e-08
1.69272e-08
7.4007755e-06
2.780423e-08
1.6467788e-08
7.3576783e-06
2.7069585e-08
1.6027629e-08
7.3157056e-06
2.6367055e-08
1.5605616e-08
7.2748103e-06
2.5694654e-08
1.5200675e-08
7.2349479e-06
2.5050555e-08
1.4811831e-08
7.1960766e-06
2.4433072e-08
1.4438179e-08
7.158157e-06
2.3840669e-08
1.4078969e-08
7.1211518e-06
2.3271918e-08
1.3733289e-08
7.0850258e-06
2.2725513e-08
1.3400539e-08
7.0497456e-06
2.2200205e-08
1.3079967e-08
7.0152798e-06
2.169492e-08
1.2770909e-08
6.9815985e-06
2.1208576e-08
1.2472764e-08
6.9486733e-06
2.0740255e-08
1.2184904e-08
6.9164775e-06
2.0289017e-08
1.190679e-08
6.8849857e-06
1.985395e-08
1.1637802e-08
6.8541739e-06
1.9434372e-08
1.1377445e-08
6.8240193e-06
1.9029492e-08
1.1125145e-08
6.7945006e-06
1.8638504e-08
1.0880231e-08
6.7655975e-06
1.8260765e-08
1.06423e-08
6.7372912e-06
1.7895531e-08
1.041075e-08
6.709564e-06
1.7542115e-08
1.0185087e-08
6.6823995e-06
1.7199618e-08
9.9648581e-09
6.6557824e-06
1.6867271e-08
9.7498394e-09
6.6296983e-06
1.654411e-08
9.5399746e-09
6.604133e-06
1.622927e-08
9.3359998e-09
6.5790714e-06
1.5921988e-08
9.1396747e-09
6.554494e-06
1.5622335e-08
8.9550843e-09
6.5303708e-06
1.5332559e-08
8.7906553e-09
6.5066467e-06
1.5060446e-08
8.6635881e-09
6.4832094e-06
1.4827776e-08
8.6094908e-09
6.4598103e-06
1.469306e-08
8.7059884e-09
6.4358388e-06
1.4826417e-08
9.1451303e-09
6.4096303e-06
1.5741762e-08
1.046676e-08
6.3782855e-06
1.8026553e-08
1.3318201e-08
3.2300204e-08
2.7923527e-08
0.00010646494
4.1872385e-06
6.4599816e-06
0.0001002019
5.695418e-06
6.6231353e-06
9.3659588e-05
5.7790389e-06
6.2744098e-06
8.7011589e-05
5.6514782e-06
6.0369387e-06
8.0422927e-05
5.366912e-06
5.7173941e-06
7.4094022e-05
4.9022832e-06
5.3063862e-06
6.8167026e-05
4.3278135e-06
4.8516273e-06
6.2722565e-05
3.717891e-06
4.387032e-06
5.7799049e-05
3.1243144e-06
3.9337145e-06
5.3403345e-05
2.5820689e-06
3.5063329e-06
4.9517402e-05
2.1121062e-06
3.1138299e-06
4.6105482e-05
1.7220197e-06
2.7597474e-06
4.3121558e-05
1.4089355e-06
2.4437429e-06
4.0515558e-05
1.1637552e-06
2.163346e-06
3.8237948e-05
9.7485849e-07
1.9152336e-06
3.6242683e-05
8.3055972e-07
1.6959573e-06
3.4488759e-05
7.2043695e-07
1.5022849e-06
3.2940716e-05
6.3586296e-07
1.3313172e-06
3.1568463e-05
5.7005003e-07
1.1804931e-06
3.0346733e-05
5.1784896e-07
1.0475522e-06
2.9254398e-05
4.7545951e-07
9.3049032e-07
2.8273782e-05
4.4013959e-07
8.2752023e-07
2.7390054e-05
4.0994895e-07
7.3704006e-07
2.6590699e-05
3.8353956e-07
6.5760855e-07
2.5865102e-05
3.5998889e-07
5.8793068e-07
2.5204197e-05
3.3867631e-07
5.2684261e-07
2.4600205e-05
3.1918358e-07
4.7330353e-07
2.4046429e-05
3.012019e-07
4.2639014e-07
2.3537073e-05
2.8455206e-07
3.8526714e-07
2.3067119e-05
2.6911102e-07
3.4918237e-07
2.2632208e-05
2.5478169e-07
3.1747787e-07
2.2228528e-05
2.4147383e-07
2.8959534e-07
2.1852744e-05
2.2911075e-07
2.6504121e-07
2.1501947e-05
2.1762892e-07
2.4337255e-07
2.1173591e-05
2.0696952e-07
2.2420573e-07
2.0865444e-05
1.970757e-07
2.0720866e-07
2.0575549e-05
1.8789254e-07
1.9209399e-07
2.0302183e-05
1.793672e-07
1.7861344e-07
2.0043829e-05
1.7144907e-07
1.6655322e-07
1.979915e-05
1.6408984e-07
1.5572942e-07
1.956696e-05
1.5724381e-07
1.4598403e-07
1.934621e-05
1.5086891e-07
1.3718217e-07
1.9135969e-05
1.449265e-07
1.2920881e-07
1.8935407e-05
1.3937902e-07
1.2196307e-07
1.8743783e-05
1.3419229e-07
1.1535762e-07
1.8560435e-05
1.2933509e-07
1.0931725e-07
1.8384766e-05
1.2477907e-07
1.0377716e-07
1.8216241e-05
1.2049849e-07
9.8681276e-08
1.8054377e-05
1.1647011e-07
9.39813e-08
1.7898734e-05
1.1267291e-07
8.9635436e-08
1.7748917e-05
1.0908821e-07
8.560699e-08
1.7604563e-05
1.0570005e-07
8.186242e-08
1.7465345e-05
1.0249335e-07
7.8373255e-08
1.7330962e-05
9.9452942e-08
7.5116956e-08
1.7201138e-05
9.6564411e-08
7.2072749e-08
1.7075619e-05
9.3816625e-08
6.9221127e-08
1.695417e-05
9.1201083e-08
6.6545099e-08
1.6836577e-05
8.8709113e-08
6.4029542e-08
1.6722638e-05
8.6331984e-08
6.166104e-08
1.661217e-05
8.4061783e-08
5.9427707e-08
1.6505001e-05
8.189154e-08
5.7318839e-08
1.640097e-05
7.9814931e-08
5.5324845e-08
1.6299929e-05
7.7826178e-08
5.3437141e-08
1.620174e-05
7.5919838e-08
5.164791e-08
1.6106272e-05
7.4091042e-08
4.9950135e-08
1.6013404e-05
7.2334978e-08
4.8337385e-08
1.5923022e-05
7.0647705e-08
4.680386e-08
1.5835019e-05
6.9025717e-08
4.5344253e-08
1.5749294e-05
6.7465523e-08
4.3953696e-08
1.5665753e-05
6.5963769e-08
4.2627711e-08
1.5584307e-05
6.4517358e-08
4.1362197e-08
1.5504871e-05
6.3123395e-08
4.0153365e-08
1.5427365e-05
6.1779287e-08
3.8997803e-08
1.5351716e-05
6.0482543e-08
3.7892288e-08
1.5277852e-05
5.9230855e-08
3.6833859e-08
1.5205705e-05
5.8022007e-08
3.5819729e-08
1.5135212e-05
5.6854028e-08
3.4847377e-08
1.5066313e-05
5.5724974e-08
3.3914316e-08
1.499895e-05
5.4633137e-08
3.301843e-08
1.493307e-05
5.3576748e-08
3.2157447e-08
1.4868621e-05
5.2554191e-08
3.1329408e-08
1.4805554e-05
5.1563931e-08
3.0532464e-08
1.4743823e-05
5.0604472e-08
2.9764653e-08
1.4683386e-05
4.9674271e-08
2.9024364e-08
1.4624199e-05
4.8771835e-08
2.8309897e-08
1.4566226e-05
4.7895426e-08
2.761956e-08
1.4509431e-05
4.7043481e-08
2.6951961e-08
1.4453778e-05
4.6214093e-08
2.6305777e-08
1.4399237e-05
4.5405377e-08
2.5679907e-08
1.4345777e-05
4.4615697e-08
2.5073759e-08
1.4293367e-05
4.3844255e-08
2.4487702e-08
1.4241972e-05
4.309285e-08
2.3923719e-08
1.4191548e-05
4.236992e-08
2.3387145e-08
1.4142019e-05
4.169931e-08
2.2889631e-08
1.4093249e-05
4.1141646e-08
2.2456612e-08
1.4044951e-05
4.0844631e-08
2.2146551e-08
1.3996485e-05
4.1169184e-08
2.2123043e-08
1.3946229e-05
4.3012309e-08
2.298541e-08
1.389015e-05
4.854025e-08
2.5565788e-08
6.3281561e-08
5.0000849e-08
0.00010603565
2.7876425e-06
6.4750379e-06
0.00010074799
4.4145413e-06
6.5685292e-06
9.5493515e-05
4.8594028e-06
6.1741159e-06
9.0256432e-05
4.930369e-06
5.9581921e-06
8.5101366e-05
4.8311767e-06
5.6908011e-06
8.0102875e-05
4.5561761e-06
5.3445981e-06
7.5322251e-05
4.1469521e-06
4.9614853e-06
7.0803266e-05
3.6678925e-06
4.5689837e-06
6.6576264e-05
3.1701903e-06
4.1811254e-06
6.2660725e-05
2.6900109e-06
3.8075976e-06
5.9065443e-05
2.2519319e-06
3.4554566e-06
5.5788936e-05
1.8697304e-06
3.1287958e-06
5.2820978e-05
1.5477473e-06
2.8291458e-06
5.014479e-05
1.2836302e-06
2.5563139e-06
4.7739304e-05
1.07123e-06
2.3091141e-06
4.5581183e-05
9.0281505e-07
2.0858661e-06
4.3646423e-05
7.704878e-07
1.884709e-06
4.1911533e-05
6.6697374e-07
1.7037792e-06
4.0354306e-05
5.8598197e-07
1.541295e-06
3.8954268e-05
5.2230224e-07
1.3955849e-06
3.769288e-05
4.7175606e-07
1.265091e-06
3.6553576e-05
4.3107983e-07
1.1483634e-06
3.552169e-05
3.9778206e-07
1.0440533e-06
3.4584322e-05
3.6999885e-07
9.5090829e-07
3.3730181e-05
3.4635988e-07
8.6777017e-07
3.2949411e-05
3.2587759e-07
7.935687e-07
3.2233419e-05
3.0784045e-07
7.2733487e-07
3.157471e-05
2.9172985e-07
6.6818105e-07
3.0966769e-05
2.7719268e-07
6.1530128e-07
3.0403928e-05
2.63981e-07
5.6797021e-07
2.9881258e-05
2.5190847e-07
5.2554315e-07
2.9394455e-05
2.4082715e-07
4.8745001e-07
2.8939761e-05
2.3062163e-07
4.5318328e-07
2.8513895e-05
2.2120152e-07
4.2229385e-07
2.8113985e-05
2.1249195e-07
3.9438675e-07
2.7737518e-05
2.0442797e-07
3.6911489e-07
2.7382285e-05
1.9695191e-07
3.4617384e-07
2.7046344e-05
1.9001177e-07
3.252968e-07
2.6727982e-05
1.8355995e-07
3.0625044e-07
2.6425689e-05
1.7755274e-07
2.8883085e-07
2.6138122e-05
1.7195001e-07
2.7285983e-07
2.5864094e-05
1.6671512e-07
2.5818183e-07
2.5602546e-05
1.6181449e-07
2.4466093e-07
2.535253e-05
1.5721706e-07
2.3217765e-07
2.51132e-05
1.5289441e-07
2.2062727e-07
2.4883797e-05
1.4882092e-07
2.0991774e-07
2.4663634e-05
1.4497363e-07
1.9996813e-07
2.4452094e-05
1.413318e-07
1.9070705e-07
2.4248615e-05
1.3787696e-07
1.8207151e-07
2.405269e-05
1.3459263e-07
1.740057e-07
2.3863854e-05
1.3146458e-07
1.6645988e-07
2.3681684e-05
1.2848056e-07
1.5938923e-07
2.3505794e-05
1.2562917e-07
1.5275413e-07
2.3335829e-05
1.2289867e-07
1.4651969e-07
2.3171462e-05
1.2027636e-07
1.4065462e-07
2.3012394e-05
1.1775475e-07
1.351302e-07
2.2858345e-05
1.1532971e-07
1.2992042e-07
2.2709057e-05
1.1299537e-07
1.2500174e-07
2.2564291e-05
1.1074517e-07
1.2035289e-07
2.2423824e-05
1.0857344e-07
1.1595458e-07
2.2287451e-05
1.0647549e-07
1.1178926e-07
2.2154978e-05
1.0444701e-07
1.0784082e-07
2.2026226e-05
1.024842e-07
1.040946e-07
2.1901025e-05
1.0058351e-07
1.0053715e-07
2.1779218e-05
9.8741515e-08
9.7156149e-08
2.1660658e-05
9.6954876e-08
9.3940266e-08
2.1545205e-05
9.5221258e-08
9.0879058e-08
2.1432729e-05
9.3538802e-08
8.7962803e-08
2.1323107e-05
9.1905291e-08
8.5182604e-08
2.1216222e-05
9.0318526e-08
8.253018e-08
2.1111965e-05
8.8776397e-08
7.9997932e-08
2.1010233e-05
8.7277131e-08
7.7578658e-08
2.0910927e-05
8.581897e-08
7.5265877e-08
2.0813956e-05
8.4400321e-08
7.3053433e-08
2.0719232e-05
8.3019674e-08
7.0935634e-08
2.0626671e-05
8.1675638e-08
6.8907216e-08
2.0536195e-05
8.0366807e-08
6.6963141e-08
2.0447729e-05
7.9091934e-08
6.5098768e-08
2.0361203e-05
7.7849831e-08
6.3309755e-08
2.0276548e-05
7.6639231e-08
6.1592055e-08
2.0193702e-05
7.5458988e-08
5.994176e-08
2.0112602e-05
7.4307937e-08
5.8355256e-08
2.0033193e-05
7.3184883e-08
5.6829078e-08
1.9955419e-05
7.2088594e-08
5.5359982e-08
1.9879228e-05
7.1017621e-08
5.3944841e-08
1.9804572e-05
6.9970429e-08
5.2580723e-08
1.9731406e-05
6.8945242e-08
5.1264792e-08
1.9659685e-05
6.7940138e-08
4.999439e-08
1.9589371e-05
6.6953001e-08
4.8767049e-08
1.9520423e-05
6.5982352e-08
4.7580517e-08
1.9452807e-05
6.5028019e-08
4.6433085e-08
1.9386482e-05
6.4094133e-08
4.5323728e-08
1.9321404e-05
6.3194685e-08
4.4253049e-08
1.9257511e-05
6.2366319e-08
4.32252e-08
1.9194705e-05
6.1695168e-08
4.2253129e-08
1.9132798e-05
6.1374083e-08
4.137739e-08
1.9071394e-05
6.1822421e-08
4.0750678e-08
1.9009424e-05
6.3924729e-08
4.1057608e-08
1.8944661e-05
6.9304692e-08
4.399884e-08
7.9170953e-08
7.4661537e-08
0.0001054937
1.9169871e-06
6.4880406e-06
0.00010005365
3.2729596e-06
6.5816334e-06
9.4926077e-05
3.8288995e-06
6.1580776e-06
8.9946373e-05
3.9838109e-06
5.9262629e-06
8.5163276e-05
3.9595077e-06
5.6547657e-06
8.0619137e-05
3.7899369e-06
5.3103784e-06
7.6329462e-05
3.5015547e-06
4.9350725e-06
7.230016e-05
3.1412013e-06
4.5559928e-06
6.8534206e-05
2.7514802e-06
4.1846641e-06
6.5032983e-05
2.3633493e-06
3.8278852e-06
6.1795789e-05
1.9984143e-06
3.490711e-06
5.8818843e-05
1.670376e-06
3.176301e-06
5.6094717e-05
1.3858295e-06
2.886043e-06
5.3612488e-05
1.1457945e-06
2.6200649e-06
5.1358373e-05
9.4764119e-07
2.3777043e-06
4.9316593e-05
7.8676784e-07
2.1578271e-06
4.7470246e-05
6.5779544e-07
1.9590391e-06
4.5802069e-05
5.5532542e-07
1.7798252e-06
4.4295042e-05
4.7437115e-07
1.6186378e-06
4.293283e-05
4.1056668e-07
1.473948e-06
4.1700078e-05
3.6023234e-07
1.3442759e-06
4.0582591e-05
3.2035742e-07
1.2282094e-06
3.956742e-05
2.8853735e-07
1.1244154e-06
3.8642881e-05
2.6289065e-07
1.0316467e-06
3.7798527e-05
2.4196984e-07
9.4874399e-07
3.7025076e-05
2.2467701e-07
8.7465167e-07
3.6314324e-05
2.1018896e-07
8.0840411e-07
3.5659057e-05
1.9788601e-07
7.4911042e-07
3.5052961e-05
1.8731582e-07
6.9597282e-07
3.4490519e-05
1.7814874e-07
6.4827382e-07
3.3966922e-05
1.701317e-07
6.053744e-07
3.3477973e-05
1.6306725e-07
5.6670866e-07
3.3020016e-05
1.5680296e-07
5.3177543e-07
3.2589865e-05
1.5122056e-07
5.0013244e-07
3.218474e-05
1.4622564e-07
4.7139138e-07
3.1802215e-05
1.4174071e-07
4.4521233e-07
3.1440168e-05
1.3770097e-07
4.2129808e-07
3.1096739e-05
1.3405093e-07
3.9938925e-07
3.0770297e-05
1.3074295e-07
3.7925953e-07
3.0459402e-05
1.2773515e-07
3.6071196e-07
3.0162787e-05
1.249909e-07
3.4357479e-07
2.9879325e-05
1.2247785e-07
3.2769851e-07
2.960802e-05
1.2016733e-07
3.1295272e-07
2.934798e-05
1.180338e-07
2.9922354e-07
2.9098408e-05
1.1605458e-07
2.864114e-07
2.885859e-05
1.142098e-07
2.7442906e-07
2.8627882e-05
1.124819e-07
2.632e-07
2.8405701e-05
1.1085556e-07
2.5265684e-07
2.819152e-05
1.0931755e-07
2.4274024e-07
2.7984859e-05
1.0785645e-07
2.3339756e-07
2.7785279e-05
1.0646275e-07
2.245821e-07
2.7592378e-05
1.0512868e-07
2.1625215e-07
2.740579e-05
1.0384735e-07
2.0837035e-07
2.7225174e-05
1.0261118e-07
2.0090361e-07
2.705022e-05
1.0140748e-07
1.9382256e-07
2.6880641e-05
1.0023388e-07
1.871004e-07
2.6716166e-05
9.9092373e-08
1.8071226e-07
2.6556546e-05
9.7979979e-08
1.7463558e-07
2.6401548e-05
9.6892537e-08
1.6885014e-07
2.6250957e-05
9.5827085e-08
1.6333743e-07
2.610457e-05
9.4781707e-08
1.5808045e-07
2.5962199e-05
9.3754757e-08
1.5306361e-07
2.5823666e-05
9.2744869e-08
1.4827258e-07
2.5688804e-05
9.1750997e-08
1.4369413e-07
2.5557458e-05
9.0771742e-08
1.3931599e-07
2.5429481e-05
8.9805171e-08
1.3512694e-07
2.5304734e-05
8.885146e-08
1.3111643e-07
2.5183087e-05
8.7911214e-08
1.2727467e-07
2.5064416e-05
8.6983914e-08
1.2359243e-07
2.4948604e-05
8.6068906e-08
1.2006118e-07
2.4835542e-05
8.51658e-08
1.1667303e-07
2.4725124e-05
8.4274318e-08
1.1342049e-07
2.4617252e-05
8.3394294e-08
1.1029658e-07
2.4511832e-05
8.2525465e-08
1.072948e-07
2.4408775e-05
8.1667765e-08
1.0440899e-07
2.4307997e-05
8.0820977e-08
1.0163345e-07
2.4209416e-05
7.9985038e-08
9.8962664e-08
2.4112956e-05
7.915978e-08
9.6391565e-08
2.4018546e-05
7.8345029e-08
9.3915315e-08
2.3926115e-05
7.7540682e-08
9.1529327e-08
2.3835598e-05
7.6746513e-08
8.9229283e-08
2.3746933e-05
7.5962301e-08
8.7011064e-08
2.366006e-05
7.5187609e-08
8.4870745e-08
2.3574922e-05
7.4421944e-08
8.2804533e-08
2.3491466e-05
7.3664624e-08
8.0808905e-08
2.3409641e-05
7.2914638e-08
7.8880369e-08
2.33294e-05
7.2170689e-08
7.7015478e-08
2.3250698e-05
7.1431297e-08
7.521099e-08
2.3173493e-05
7.0694906e-08
7.3463648e-08
2.3097745e-05
6.9960209e-08
7.1770069e-08
2.3023418e-05
6.9227991e-08
7.0127022e-08
2.2950477e-05
6.8503525e-08
6.8531202e-08
2.2878889e-05
6.7802879e-08
6.6979714e-08
2.2808619e-05
6.7165069e-08
6.5471551e-08
2.2739625e-05
6.6675271e-08
6.401336e-08
2.267185e-05
6.6507082e-08
6.2642301e-08
2.2605149e-05
6.6990709e-08
6.1532368e-08
2.2538888e-05
6.8686027e-08
6.1499909e-08
2.2471121e-05
7.222694e-08
6.4845125e-08
7.6722843e-08
9.8461334e-08
0.0001051979
1.3340885e-06
6.4961221e-06
9.9496561e-05
2.3731022e-06
6.6011947e-06
9.4262459e-05
2.9019223e-06
6.1610799e-06
8.9251186e-05
3.0856641e-06
5.9094196e-06
8.4493498e-05
3.0947347e-06
5.6224614e-06
8.0033635e-05
2.9846656e-06
5.265134e-06
7.5876907e-05
2.7790155e-06
4.8792667e-06
7.2014635e-05
2.5106844e-06
4.4927895e-06
6.8436293e-05
2.2128728e-06
4.1169489e-06
6.5131387e-05
1.9107259e-06
3.7575291e-06
6.208941e-05
1.6217321e-06
3.4186596e-06
5.9299432e-05
1.3573877e-06
3.1029661e-06
5.6749589e-05
1.1240344e-06
2.8116386e-06
5.4426788e-05
9.2377948e-07
2.5448158e-06
5.2316754e-05
7.5572798e-07
2.3019466e-06
5.0404313e-05
6.1717852e-07
2.0820302e-06
4.8673788e-05
5.0454349e-07
1.8837772e-06
4.7109414e-05
4.139718e-07
1.7057274e-06
4.5695713e-05
3.4173651e-07
1.5463363e-06
4.4417792e-05
2.8445144e-07
1.4040359e-06
4.3261575e-05
2.3917113e-07
1.277278e-06
4.2213952e-05
2.0341502e-07
1.1645652e-06
4.1262871e-05
1.7514743e-07
1.0644719e-06
4.039737e-05
1.5273234e-07
9.7565899e-07
3.9607583e-05
1.3487527e-07
8.9688144e-07
3.8884688e-05
1.2055567e-07
8.270164e-07
3.8220848e-05
1.0901089e-07
7.6501857e-07
3.7609155e-05
9.963385e-08
7.0994487e-07
3.7043542e-05
9.1977434e-08
6.609509e-07
3.6518702e-05
8.5705835e-08
6.1728291e-07
3.6030009e-05
8.0552401e-08
5.7827311e-07
3.5573433e-05
7.63083e-08
5.4333418e-07
3.5145475e-05
7.2811278e-08
5.1195031e-07
3.4743091e-05
6.9934149e-08
4.8367024e-07
3.4363641e-05
6.7575439e-08
4.5810064e-07
3.4004828e-05
6.5652889e-08
4.3489999e-07
3.3664659e-05
6.40986e-08
4.1377212e-07
3.3341393e-05
6.2855938e-08
3.9446099e-07
3.3033513e-05
6.1877025e-08
3.7674525e-07
3.2739693e-05
6.1121065e-08
3.6043422e-07
3.2458768e-05
6.0553058e-08
3.453633e-07
3.2189712e-05
6.0142657e-08
3.3139057e-07
3.1931622e-05
5.9863646e-08
3.183938e-07
3.1683696e-05
5.9693118e-08
3.0626737e-07
3.1445219e-05
5.9611175e-08
2.9492015e-07
3.1215555e-05
5.9600626e-08
2.8427316e-07
3.0994132e-05
5.9646518e-08
2.7425806e-07
3.0780436e-05
5.9736159e-08
2.6481539e-07
3.0574002e-05
5.9858653e-08
2.5589334e-07
3.0374407e-05
6.0004884e-08
2.4744662e-07
3.0181267e-05
6.0167607e-08
2.394355e-07
2.9994229e-05
6.034122e-08
2.3182486e-07
2.9812971e-05
6.0521819e-08
2.2458374e-07
2.9637193e-05
6.0704452e-08
2.1768457e-07
2.9466629e-05
6.0867255e-08
2.1110457e-07
2.9301024e-05
6.1016973e-08
2.0482178e-07
2.914014e-05
6.1160883e-08
1.9881568e-07
2.8983756e-05
6.1294959e-08
1.9306838e-07
2.8831669e-05
6.1415486e-08
1.8756388e-07
2.8683688e-05
6.1520966e-08
1.8228764e-07
2.8539633e-05
6.1610549e-08
1.7722637e-07
2.8399336e-05
6.1683774e-08
1.7236786e-07
2.8262639e-05
6.1740486e-08
1.677009e-07
2.8129394e-05
6.1780688e-08
1.6321521e-07
2.7999461e-05
6.1803857e-08
1.5890123e-07
2.7872709e-05
6.1807363e-08
1.5475037e-07
2.7749012e-05
6.1793585e-08
1.5075443e-07
2.7628253e-05
6.1764863e-08
1.4690558e-07
2.7510319e-05
6.1721005e-08
1.4319661e-07
2.7395105e-05
6.1662103e-08
1.3962084e-07
2.728251e-05
6.1588597e-08
1.3617201e-07
2.7172439e-05
6.1501044e-08
1.3284423e-07
2.7064802e-05
6.139995e-08
1.2963193e-07
2.6959511e-05
6.1285955e-08
1.2652992e-07
2.6856486e-05
6.1159538e-08
1.2353323e-07
2.6755649e-05
6.1021328e-08
1.2063734e-07
2.6656924e-05
6.0871878e-08
1.1783768e-07
2.6560242e-05
6.0711745e-08
1.1513015e-07
2.6465535e-05
6.0541394e-08
1.1251078e-07
2.6372738e-05
6.0361311e-08
1.0997581e-07
2.6281791e-05
6.0171919e-08
1.0752158e-07
2.6192636e-05
5.9973552e-08
1.0514472e-07
2.6105215e-05
5.9766296e-08
1.0284182e-07
2.6019477e-05
5.955026e-08
1.0060971e-07
2.5935371e-05
5.9325149e-08
9.8445282e-08
2.585285e-05
5.9090481e-08
9.6345394e-08
2.5771868e-05
5.8845489e-08
9.4306928e-08
2.5692384e-05
5.8588975e-08
9.2326737e-08
2.5614357e-05
5.8319813e-08
9.0401446e-08
2.5537753e-05
5.8037064e-08
8.8527342e-08
2.5462539e-05
5.7741631e-08
8.6700228e-08
2.5388689e-05
5.743838e-08
8.491517e-08
2.5316184e-05
5.7141459e-08
8.3166642e-08
2.5245017e-05
5.6882603e-08
8.1449631e-08
2.51752e-05
5.6726037e-08
7.9765806e-08
2.510677e-05
5.6787917e-08
7.8149198e-08
2.5039729e-05
5.7251606e-08
7.6780982e-08
2.4973573e-05
5.8330937e-08
7.6510212e-08
2.4906079e-05
5.9989472e-08
7.9732189e-08
6.0714997e-08
1.1287826e-07
0.00010503672
9.0789373e-07
6.5005614e-06
9.9140653e-05
1.6524914e-06
6.6166802e-06
9.3788329e-05
2.0825242e-06
6.1717217e-06
8.8708526e-05
2.2549373e-06
5.91053e-06
8.3909682e-05
2.278404e-06
5.6151748e-06
7.9437109e-05
2.2074821e-06
5.2497564e-06
7.5296201e-05
2.0645348e-06
4.8553893e-06
7.1474034e-05
1.8722543e-06
4.4605969e-06
6.7955013e-05
1.6547667e-06
4.0771269e-06
6.4723621e-05
1.4313505e-06
3.7107669e-06
6.1764423e-05
1.2154297e-06
3.3655007e-06
5.9062056e-05
1.015864e-06
3.0438911e-06
5.6601108e-05
8.3782745e-07
2.7471548e-06
5.4365944e-05
6.8344646e-07
2.475497e-06
5.2340648e-05
5.5258526e-07
2.2284383e-06
5.0509125e-05
4.4366548e-07
2.0050361e-06
4.8855299e-05
3.5433458e-07
1.8040352e-06
4.7363353e-05
2.8193591e-07
1.6239821e-06
4.6017963e-05
2.2381345e-07
1.4633127e-06
4.4804503e-05
1.7749381e-07
1.3204181e-06
4.3709199e-05
1.4078089e-07
1.1936935e-06
4.2719248e-05
1.1179155e-07
1.081575e-06
4.1822875e-05
8.8954516e-08
9.8256582e-07
4.1009364e-05
7.0987982e-08
8.9525473e-07
4.0269054e-05
5.6861823e-08
8.1832381e-07
3.9593306e-05
4.5719143e-08
7.5058478e-07
3.8974405e-05
3.697784e-08
6.9093438e-07
3.8405585e-05
3.0067343e-08
6.3838632e-07
3.7880869e-05
2.4650866e-08
5.9204242e-07
3.7395029e-05
2.043999e-08
5.5110604e-07
3.6943514e-05
1.7190273e-08
5.1487713e-07
3.6522366e-05
1.471674e-08
4.8273957e-07
3.6128148e-05
1.2874777e-08
4.541539e-07
3.5757883e-05
1.1549891e-08
4.2864944e-07
3.5408991e-05
1.0650761e-08
4.0581706e-07
3.5079238e-05
1.0103612e-08
3.8530229e-07
3.4766689e-05
9.8482612e-09
3.667988e-07
3.4469668e-05
9.8350911e-09
3.5004236e-07
3.4186716e-05
1.0022892e-08
3.3480554e-07
3.3916567e-05
1.0377019e-08
3.2089286e-07
3.3658116e-05
1.0868043e-08
3.081366e-07
3.3410395e-05
1.1470982e-08
2.9639284e-07
3.3172556e-05
1.2164225e-08
2.8553828e-07
3.2943852e-05
1.2929279e-08
2.7546719e-07
3.2723625e-05
1.3750158e-08
2.6608897e-07
3.2511286e-05
1.461305e-08
2.5732574e-07
3.2306316e-05
1.5506214e-08
2.4911066e-07
3.2108246e-05
1.6419574e-08
2.4138621e-07
3.1916658e-05
1.7344598e-08
2.341027e-07
3.1731171e-05
1.8274295e-08
2.2721712e-07
3.1551444e-05
1.9203144e-08
2.2069214e-07
3.1377162e-05
2.012774e-08
2.1449507e-07
3.1208038e-05
2.1048672e-08
2.085968e-07
3.10438e-05
2.1972771e-08
2.0297056e-07
3.0884232e-05
2.2827841e-08
1.9760738e-07
3.0729103e-05
2.3662959e-08
1.9248229e-07
3.05782e-05
2.449002e-08
1.8757379e-07
3.0431331e-05
2.5296303e-08
1.8286764e-07
3.0288318e-05
2.607802e-08
1.7835079e-07
3.0148994e-05
2.68343e-08
1.7401109e-07
3.0013202e-05
2.7564706e-08
1.6983756e-07
2.9880797e-05
2.8268989e-08
1.6582024e-07
2.975164e-05
2.8947414e-08
1.6195012e-07
2.96256e-05
2.9600777e-08
1.5821899e-07
2.9502557e-05
3.0228558e-08
1.5461919e-07
2.9382396e-05
3.0823585e-08
1.5114466e-07
2.9265007e-05
3.1393135e-08
1.4778875e-07
2.9150287e-05
3.1939604e-08
1.4454538e-07
2.9038137e-05
3.2461885e-08
1.41409e-07
2.8928465e-05
3.2960068e-08
1.383746e-07
2.8821181e-05
3.3434724e-08
1.3543754e-07
2.8716203e-05
3.3886375e-08
1.3259329e-07
2.8613449e-05
3.4315561e-08
1.2983787e-07
2.8512845e-05
3.4722858e-08
1.2716737e-07
2.8414317e-05
3.5108966e-08
1.2457815e-07
2.8317797e-05
3.547446e-08
1.2206681e-07
2.8223219e-05
3.5819916e-08
1.1963011e-07
2.813052e-05
3.614591e-08
1.1726494e-07
2.803964e-05
3.645309e-08
1.1496842e-07
2.7950522e-05
3.6741855e-08
1.1273773e-07
2.7863111e-05
3.701279e-08
1.1057026e-07
2.7777354e-05
3.7266251e-08
1.0846342e-07
2.7693204e-05
3.7502474e-08
1.0641474e-07
2.761061e-05
3.772162e-08
1.0442172e-07
2.752953e-05
3.792358e-08
1.0248201e-07
2.7449919e-05
3.8108017e-08
1.0059307e-07
2.7371738e-05
3.8274301e-08
9.8752313e-08
2.7294949e-05
3.8421536e-08
9.69569e-08
2.7219516e-05
3.8548725e-08
9.5203631e-08
2.714541e-05
3.8655108e-08
9.3488624e-08
2.7072603e-05
3.8741131e-08
9.180697e-08
2.7001079e-05
3.8810274e-08
9.0152334e-08
2.6930832e-05
3.8872125e-08
8.8516533e-08
2.6861876e-05
3.8947389e-08
8.6890525e-08
2.679426e-05
3.9073553e-08
8.5269171e-08
2.6728065e-05
3.9306966e-08
8.3675924e-08
2.6663337e-05
3.9708353e-08
8.2271178e-08
2.659956e-05
4.0271976e-08
8.1836203e-08
2.6534295e-05
4.0698022e-08
8.4555754e-08
3.9620854e-08
1.1507132e-07
0.00010494757
5.681108e-07
6.5033076e-06
9.8925416e-05
1.0462983e-06
6.6283517e-06
9.3480449e-05
1.3439844e-06
6.1835065e-06
8.8341777e-05
1.4751324e-06
5.9184763e-06
8.3502084e-05
1.4993911e-06
5.6187065e-06
7.9004057e-05
1.4572411e-06
5.2482679e-06
7.4853978e-05
1.3667382e-06
4.8478757e-06
7.1037378e-05
1.2423973e-06
4.4464569e-06
6.7536063e-05
1.0997693e-06
4.0563127e-06
6.4331998e-05
9.5192359e-07
3.683491e-06
6.1407318e-05
8.0805755e-07
3.3320524e-06
5.8744339e-05
6.7422202e-07
3.0046209e-06
5.6325632e-05
5.5404396e-07
2.7024907e-06
5.4133973e-05
4.4916743e-07
2.4259383e-06
5.2152298e-05
3.5972401e-07
2.174536e-06
5.0363747e-05
2.8484514e-07
1.9473717e-06
4.875178e-05
2.2310003e-07
1.7432015e-06
4.7300339e-05
1.728117e-07
1.5605647e-06
4.5994012e-05
1.3226572e-07
1.3978748e-06
4.4818177e-05
9.9840026e-08
1.2534891e-06
4.3759121e-05
7.4075617e-08
1.1257614e-06
4.2804123e-05
5.3707638e-08
1.0130814e-06
4.1941503e-05
3.7671207e-08
9.1390374e-07
4.1160627e-05
2.5096446e-08
8.2676731e-07
4.0451891e-05
1.5294152e-08
7.503039e-07
3.980679e-05
7.5281645e-09
6.8329176e-07
3.9217543e-05
1.6727406e-09
6.2455204e-07
3.8677513e-05
-3.033098e-09
5.7313082e-07
3.8180739e-05
-6.6486544e-09
5.2807355e-07
3.7722004e-05
-9.3595022e-09
4.885345e-07
3.7296777e-05
-1.1371797e-08
4.5378927e-07
3.6901112e-05
-1.2818237e-08
4.231991e-07
3.6531588e-05
-1.3805337e-08
3.9620477e-07
3.6185236e-05
-1.4417494e-08
3.7231876e-07
3.5859491e-05
-1.472188e-08
3.5111777e-07
3.5552132e-05
-1.4772643e-08
3.3223578e-07
3.5261237e-05
-1.461392e-08
3.153573e-07
3.4985143e-05
-1.4282201e-08
3.0021089e-07
3.472241e-05
-1.3807699e-08
2.865638e-07
3.4471786e-05
-1.3215925e-08
2.7421629e-07
3.4232185e-05
-1.2528247e-08
2.6299771e-07
3.4002657e-05
-1.1762814e-08
2.5276175e-07
3.3782373e-05
-1.0935265e-08
2.4338336e-07
3.3570606e-05
-1.0058805e-08
2.3475556e-07
3.3366714e-05
-9.1447747e-09
2.2678671e-07
3.3170131e-05
-8.2028511e-09
2.1939832e-07
3.2980356e-05
-7.2412426e-09
2.1252299e-07
3.279694e-05
-6.2669048e-09
2.0610284e-07
3.2619482e-05
-5.2855204e-09
2.0008787e-07
3.2447623e-05
-4.3018203e-09
1.9443479e-07
3.228104e-05
-3.319086e-09
1.8910586e-07
3.2119438e-05
-2.3383366e-09
1.8406731e-07
3.1962554e-05
-1.3530494e-09
1.7928646e-07
3.1810075e-05
-2.763393e-10
1.7472765e-07
3.1661878e-05
5.8581457e-10
1.7043905e-07
3.1517732e-05
1.4356119e-09
1.6637295e-07
3.1377429e-05
2.3038187e-09
1.6248958e-07
3.1240792e-05
3.1586598e-09
1.5877487e-07
3.1107656e-05
3.9969896e-09
1.5521721e-07
3.0977867e-05
4.8171828e-09
1.518055e-07
3.0851284e-05
5.6179594e-09
1.4852968e-07
3.0727774e-05
6.398988e-09
1.4538077e-07
3.0607209e-05
7.1608952e-09
1.4235053e-07
3.0489473e-05
7.9059241e-09
1.394312e-07
3.037445e-05
8.6357357e-09
1.366158e-07
3.0262049e-05
9.3206373e-09
1.3390397e-07
3.0152163e-05
9.9938067e-09
1.3128565e-07
3.0044697e-05
1.0650382e-08
1.2875516e-07
2.9939564e-05
1.1286735e-08
1.263083e-07
2.983668e-05
1.1903199e-08
1.2394087e-07
2.9735965e-05
1.2500164e-08
1.2164885e-07
2.9637345e-05
1.3077878e-08
1.1942844e-07
2.9540748e-05
1.3636716e-08
1.1727616e-07
2.9446105e-05
1.4177007e-08
1.1518882e-07
2.9353352e-05
1.4699187e-08
1.1316338e-07
2.9262425e-05
1.5203536e-08
1.1119699e-07
2.9173268e-05
1.5690513e-08
1.0928707e-07
2.9085822e-05
1.6160388e-08
1.0743107e-07
2.9000035e-05
1.6613566e-08
1.0562665e-07
2.8915855e-05
1.7050395e-08
1.0387153e-07
2.8833233e-05
1.74711e-08
1.0216361e-07
2.8752123e-05
1.7875955e-08
1.005008e-07
2.8672479e-05
1.8265114e-08
9.8881101e-08
2.8594259e-05
1.8638555e-08
9.7302492e-08
2.8517424e-05
1.8996227e-08
9.5762971e-08
2.8441934e-05
1.9337834e-08
9.4260379e-08
2.8367753e-05
1.9662811e-08
9.2792354e-08
2.8294848e-05
1.997047e-08
9.1356278e-08
2.8223187e-05
2.0259965e-08
8.9948864e-08
2.8152746e-05
2.0530686e-08
8.8565929e-08
2.8083503e-05
2.0782631e-08
8.7201814e-08
2.8015447e-05
2.1017523e-08
8.5848677e-08
2.7948582e-05
2.1240712e-08
8.4495838e-08
2.7882937e-05
2.1462719e-08
8.3129511e-08
2.7818574e-05
2.1699985e-08
8.1736502e-08
2.7755588e-05
2.1969324e-08
8.0324361e-08
2.7694014e-05
2.2266211e-08
7.9016077e-08
2.7633299e-05
2.2506298e-08
7.8480661e-08
2.7571004e-05
2.2393409e-08
8.0599486e-08
2.0993081e-08
1.0779947e-07
0.00010489986
2.7443378e-07
6.5049155e-06
9.8802772e-05
5.0716635e-07
6.6362236e-06
9.329591e-05
6.5854976e-07
6.1922972e-06
8.8116302e-05
7.2902544e-07
5.9257148e-06
8.3248198e-05
7.4378815e-07
5.6237064e-06