/*--------------------------------*- C++ -*----------------------------------*\
  =========                 |
  \\      /  F ield         | OpenFOAM: The Open Source CFD Toolbox
   \\    /   O peration     | Website:  https://openfoam.org
    \\  /    A nd           | Version:  7
     \\/     M anipulation  |
\*---------------------------------------------------------------------------*/
FoamFile
{
    version     2.0;
    format      ascii;
    class       surfaceScalarField;
    location    "1600/water";
    object      phi;
}
// * * * * * * * * * * * * * * * * * * * * * * * * * * * * * * * * * * * * * //

dimensions      [1 0 -1 0 0 0 0];

internalField   nonuniform List<scalar> 
156660
(
9.9057239e-05
6.0010402e-06
6.0528092e-06
8.6847498e-05
6.0555113e-06
6.1542307e-06
7.5687891e-05
5.5111362e-06
5.6484701e-06
6.5441704e-05
5.0404181e-06
5.2057689e-06
5.6267661e-05
4.4956436e-06
4.6783992e-06
4.8318019e-05
3.8797648e-06
4.0698777e-06
4.1624776e-05
3.2524448e-06
3.4407981e-06
3.6124897e-05
2.660462e-06
2.839417e-06
3.1692235e-05
2.1345127e-06
2.2981489e-06
2.8162841e-05
1.6926975e-06
1.8366964e-06
2.5361437e-05
1.3399933e-06
1.4614113e-06
2.3124664e-05
1.0698477e-06
1.1669256e-06
2.1315127e-05
8.6875418e-07
9.4078226e-07
1.9825714e-05
7.2110066e-07
7.6831278e-07
1.8577278e-05
6.1248247e-07
6.3595308e-07
1.7513254e-05
5.3125218e-07
5.327715e-07
1.6593744e-05
4.6879723e-07
4.5071349e-07
1.5790433e-05
4.191372e-07
3.841739e-07
1.5082784e-05
3.7829072e-07
3.2935848e-07
1.4455417e-05
3.4367128e-07
2.8369563e-07
1.3896409e-05
3.1361409e-07
2.4539332e-07
1.339622e-05
2.8704448e-07
2.1314451e-07
1.2947015e-05
2.6326032e-07
1.859451e-07
1.2542237e-05
2.4179367e-07
1.6298458e-07
1.2176318e-05
2.2232207e-07
1.435969e-07
1.1844484e-05
2.046148e-07
1.2721881e-07
1.1542609e-05
1.8849495e-07
1.1337974e-07
1.1267116e-05
1.7381576e-07
1.0167792e-07
1.1014892e-05
1.6046274e-07
9.1760816e-08
1.0783252e-05
1.4833967e-07
8.3300585e-08
1.0569851e-05
1.3734906e-07
7.605215e-08
1.0372614e-05
1.2738864e-07
6.9848347e-08
1.0189731e-05
1.183681e-07
6.451485e-08
1.001963e-05
1.1020446e-07
5.9896626e-08
9.8609388e-06
1.028192e-07
5.5871646e-08
9.7124594e-06
9.6137963e-08
5.2341359e-08
9.5731439e-06
9.0091188e-08
4.9224346e-08
9.4420759e-06
8.4614462e-08
4.6453581e-08
9.3184531e-06
7.9648675e-08
4.3974126e-08
9.2015723e-06
7.5139721e-08
4.1741071e-08
9.0908166e-06
7.1038169e-08
3.9717562e-08
8.9856432e-06
6.730113e-08
3.7872349e-08
8.8855707e-06
6.3894258e-08
3.6178185e-08
8.7901757e-06
6.0780119e-08
3.4614938e-08
8.6990829e-06
5.7926165e-08
3.3166666e-08
8.6119591e-06
5.5303738e-08
3.1820145e-08
8.5285072e-06
5.2887439e-08
3.0564429e-08
8.4484619e-06
5.0655051e-08
2.9390297e-08
8.3715848e-06
4.8587058e-08
2.829001e-08
8.2976614e-06
4.6666193e-08
2.7257235e-08
8.2264975e-06
4.4877473e-08
2.6286407e-08
8.1579202e-06
4.320879e-08
2.5368527e-08
8.0917731e-06
4.1649051e-08
2.449803e-08
8.0279108e-06
4.0186991e-08
2.3675334e-08
7.9662006e-06
3.8812696e-08
2.2897537e-08
7.9065219e-06
3.7518422e-08
2.2160238e-08
7.8487639e-06
3.6297869e-08
2.1460152e-08
7.7928242e-06
3.5145139e-08
2.0794598e-08
7.7386083e-06
3.4054665e-08
2.0161142e-08
7.6860293e-06
3.3021345e-08
1.9557675e-08
7.6350062e-06
3.2040826e-08
1.8982275e-08
7.5854641e-06
3.1109074e-08
1.8433092e-08
7.537333e-06
3.0222638e-08
1.7908495e-08
7.4905478e-06
2.9378258e-08
1.7406999e-08
7.4450476e-06
2.8573018e-08
1.6927203e-08
7.4007756e-06
2.7804268e-08
1.6467784e-08
7.3576783e-06
2.7069582e-08
1.6027653e-08
7.3157056e-06
2.6367053e-08
1.5605614e-08
7.2748103e-06
2.5694661e-08
1.5200702e-08
7.2349479e-06
2.5050569e-08
1.4811828e-08
7.1960766e-06
2.4433101e-08
1.4438173e-08
7.158157e-06
2.3840664e-08
1.4078919e-08
7.1211518e-06
2.3271911e-08
1.3733284e-08
7.0850258e-06
2.2725492e-08
1.3400488e-08
7.0497456e-06
2.2200209e-08
1.3079955e-08
7.0152798e-06
2.1694946e-08
1.2770921e-08
6.9815984e-06
2.1208579e-08
1.2472771e-08
6.9486733e-06
2.0740242e-08
1.2184923e-08
6.9164775e-06
2.0288956e-08
1.1906799e-08
6.8849857e-06
1.9853935e-08
1.1637826e-08
6.8541739e-06
1.9434366e-08
1.1377467e-08
6.8240193e-06
1.9029453e-08
1.112512e-08
6.7945006e-06
1.86385e-08
1.0880231e-08
6.7655976e-06
1.8260779e-08
1.064229e-08
6.7372912e-06
1.7895545e-08
1.0410752e-08
6.7095641e-06
1.7542118e-08
1.0185058e-08
6.6823996e-06
1.719963e-08
9.964888e-09
6.6557825e-06
1.6867255e-08
9.7498275e-09
6.6296983e-06
1.6544093e-08
9.5399849e-09
6.6041331e-06
1.6229278e-08
9.3360142e-09
6.5790714e-06
1.5921951e-08
9.139684e-09
6.554494e-06
1.5622314e-08
8.955082e-09
6.5303708e-06
1.5332536e-08
8.7906753e-09
6.5066467e-06
1.5060453e-08
8.6635827e-09
6.4832094e-06
1.4827787e-08
8.6095198e-09
6.4598103e-06
1.4693098e-08
8.7060396e-09
6.4358388e-06
1.482643e-08
9.1451549e-09
6.4096303e-06
1.5741753e-08
1.0466763e-08
6.3782855e-06
1.8026565e-08
1.3318265e-08
3.2300202e-08
2.7923565e-08
0.00010646494
4.1872385e-06
6.4599816e-06
0.0001002019
5.695418e-06
6.6231353e-06
9.3659588e-05
5.7790389e-06
6.2744098e-06
8.7011589e-05
5.6514782e-06
6.0369387e-06
8.0422927e-05
5.3669119e-06
5.7173941e-06
7.4094022e-05
4.9022832e-06
5.3063862e-06
6.8167026e-05
4.3278135e-06
4.8516272e-06
6.2722565e-05
3.717891e-06
4.387032e-06
5.7799049e-05
3.1243144e-06
3.9337145e-06
5.3403345e-05
2.5820689e-06
3.5063328e-06
4.9517402e-05
2.1121062e-06
3.1138299e-06
4.6105482e-05
1.7220197e-06
2.7597474e-06
4.3121558e-05
1.4089355e-06
2.4437429e-06
4.0515558e-05
1.1637552e-06
2.163346e-06
3.8237948e-05
9.7485852e-07
1.9152336e-06
3.6242683e-05
8.3055975e-07
1.6959573e-06
3.4488759e-05
7.20437e-07
1.5022849e-06
3.2940716e-05
6.3586296e-07
1.3313172e-06
3.1568463e-05
5.7005005e-07
1.1804931e-06
3.0346733e-05
5.1784896e-07
1.0475522e-06
2.9254398e-05
4.7545953e-07
9.3049031e-07
2.8273782e-05
4.4013957e-07
8.2752025e-07
2.7390054e-05
4.0994889e-07
7.3704009e-07
2.6590699e-05
3.8353952e-07
6.5760856e-07
2.5865102e-05
3.5998888e-07
5.8793072e-07
2.5204198e-05
3.3867631e-07
5.2684261e-07
2.4600205e-05
3.191836e-07
4.7330347e-07
2.4046429e-05
3.0120193e-07
4.2639013e-07
2.3537073e-05
2.8455208e-07
3.8526713e-07
2.3067119e-05
2.6911101e-07
3.4918238e-07
2.2632208e-05
2.5478164e-07
3.1747784e-07
2.2228528e-05
2.4147385e-07
2.8959532e-07
2.1852744e-05
2.2911075e-07
2.6504125e-07
2.1501947e-05
2.1762897e-07
2.4337259e-07
2.1173591e-05
2.0696951e-07
2.2420573e-07
2.0865444e-05
1.9707569e-07
2.0720867e-07
2.0575549e-05
1.8789254e-07
1.9209396e-07
2.0302183e-05
1.7936725e-07
1.7861346e-07
2.0043829e-05
1.714491e-07
1.6655322e-07
1.979915e-05
1.6408984e-07
1.5572945e-07
1.956696e-05
1.5724382e-07
1.4598404e-07
1.934621e-05
1.5086895e-07
1.3718218e-07
1.9135969e-05
1.4492651e-07
1.2920882e-07
1.8935407e-05
1.3937907e-07
1.2196306e-07
1.8743783e-05
1.3419232e-07
1.1535762e-07
1.8560435e-05
1.293351e-07
1.0931728e-07
1.8384766e-05
1.2477908e-07
1.0377719e-07
1.8216241e-05
1.2049851e-07
9.8681301e-08
1.8054377e-05
1.1647015e-07
9.3981345e-08
1.7898734e-05
1.1267293e-07
8.9635415e-08
1.7748917e-05
1.0908823e-07
8.5606984e-08
1.7604563e-05
1.0570005e-07
8.1862416e-08
1.7465345e-05
1.0249341e-07
7.8373292e-08
1.7330962e-05
9.9453015e-08
7.5116995e-08
1.7201138e-05
9.6564408e-08
7.2072704e-08
1.7075619e-05
9.381667e-08
6.9221129e-08
1.695417e-05
9.1201113e-08
6.6545117e-08
1.6836577e-05
8.8709114e-08
6.4029534e-08
1.6722638e-05
8.6331947e-08
6.1661046e-08
1.661217e-05
8.4061734e-08
5.94277e-08
1.6505001e-05
8.1891522e-08
5.7318834e-08
1.640097e-05
7.9814925e-08
5.5324848e-08
1.6299929e-05
7.7826167e-08
5.3437115e-08
1.620174e-05
7.5919874e-08
5.1647915e-08
1.6106272e-05
7.4091056e-08
4.9950134e-08
1.6013404e-05
7.2334994e-08
4.8337374e-08
1.5923022e-05
7.0647728e-08
4.6803886e-08
1.5835019e-05
6.9025735e-08
4.5344256e-08
1.5749294e-05
6.7465517e-08
4.3953709e-08
1.5665753e-05
6.5963749e-08
4.2627684e-08
1.5584307e-05
6.4517348e-08
4.1362165e-08
1.5504871e-05
6.3123417e-08
4.0153346e-08
1.5427365e-05
6.1779295e-08
3.8997802e-08
1.5351716e-05
6.0482536e-08
3.7892281e-08
1.5277852e-05
5.9230834e-08
3.6833838e-08
1.5205705e-05
5.8021986e-08
3.58197e-08
1.5135212e-05
5.6853961e-08
3.4847358e-08
1.5066313e-05
5.5725008e-08
3.3914345e-08
1.499895e-05
5.4633116e-08
3.3018406e-08
1.493307e-05
5.3576697e-08
3.2157427e-08
1.4868621e-05
5.2554177e-08
3.1329407e-08
1.4805554e-05
5.1563922e-08
3.0532449e-08
1.4743823e-05
5.06045e-08
2.9764667e-08
1.4683386e-05
4.9674312e-08
2.9024347e-08
1.4624199e-05
4.8771814e-08
2.8309851e-08
1.4566226e-05
4.7895484e-08
2.7619534e-08
1.4509431e-05
4.7043511e-08
2.6952001e-08
1.4453778e-05
4.621412e-08
2.6305768e-08
1.4399237e-05
4.5405403e-08
2.5679902e-08
1.4345777e-05
4.4615707e-08
2.5073758e-08
1.4293367e-05
4.3844237e-08
2.4487709e-08
1.4241972e-05
4.3092869e-08
2.3923761e-08
1.4191548e-05
4.2369901e-08
2.3387169e-08
1.4142019e-05
4.169933e-08
2.2889653e-08
1.4093249e-05
4.114164e-08
2.245665e-08
1.4044951e-05
4.0844632e-08
2.2146562e-08
1.3996485e-05
4.1169178e-08
2.2123046e-08
1.3946229e-05
4.3012307e-08
2.2985435e-08
1.389015e-05
4.8540256e-08
2.5565825e-08
6.3281548e-08
5.0000871e-08
0.00010603565
2.7876425e-06
6.4750379e-06
0.00010074799
4.4145412e-06
6.5685292e-06
9.5493515e-05
4.8594028e-06
6.1741159e-06
9.0256432e-05
4.930369e-06
5.9581921e-06
8.5101366e-05
4.8311767e-06
5.6908012e-06
8.0102875e-05
4.5561761e-06
5.3445981e-06
7.5322251e-05
4.1469521e-06
4.9614853e-06
7.0803266e-05
3.6678925e-06
4.5689837e-06
6.6576264e-05
3.1701903e-06
4.1811255e-06
6.2660725e-05
2.690011e-06
3.8075976e-06
5.9065443e-05
2.2519319e-06
3.4554566e-06
5.5788936e-05
1.8697304e-06
3.1287957e-06
5.2820978e-05
1.5477473e-06
2.8291458e-06
5.014479e-05
1.2836302e-06
2.5563139e-06
4.7739304e-05
1.07123e-06
2.3091141e-06
4.5581183e-05
9.0281507e-07
2.0858661e-06
4.3646423e-05
7.7048784e-07
1.884709e-06
4.1911533e-05
6.6697377e-07
1.7037793e-06
4.0354306e-05
5.8598197e-07
1.541295e-06
3.8954268e-05
5.2230224e-07
1.3955849e-06
3.769288e-05
4.7175605e-07
1.265091e-06
3.6553576e-05
4.3107983e-07
1.1483634e-06
3.552169e-05
3.9778209e-07
1.0440533e-06
3.4584322e-05
3.6999885e-07
9.5090832e-07
3.3730181e-05
3.4635982e-07
8.677702e-07
3.2949411e-05
3.2587758e-07
7.9356871e-07
3.2233419e-05
3.0784043e-07
7.2733487e-07
3.1574711e-05
2.9172982e-07
6.6818103e-07
3.0966769e-05
2.7719267e-07
6.1530128e-07
3.0403928e-05
2.6398101e-07
5.6797019e-07
2.9881258e-05
2.5190847e-07
5.2554314e-07
2.9394455e-05
2.4082709e-07
4.8744998e-07
2.8939761e-05
2.3062159e-07
4.5318327e-07
2.8513895e-05
2.2120153e-07
4.2229387e-07
2.8113985e-05
2.1249197e-07
3.9438672e-07
2.7737518e-05
2.0442797e-07
3.6911486e-07
2.7382285e-05
1.9695192e-07
3.4617382e-07
2.7046344e-05
1.9001177e-07
3.252968e-07
2.6727982e-05
1.8355995e-07
3.0625044e-07
2.6425689e-05
1.7755274e-07
2.8883088e-07
2.6138123e-05
1.7195003e-07
2.7285986e-07
2.5864094e-05
1.6671517e-07
2.5818186e-07
2.5602546e-05
1.6181454e-07
2.4466091e-07
2.535253e-05
1.5721712e-07
2.3217765e-07
2.51132e-05
1.5289444e-07
2.2062729e-07
2.4883797e-05
1.4882098e-07
2.0991773e-07
2.4663634e-05
1.4497365e-07
1.9996813e-07
2.4452094e-05
1.4133183e-07
1.9070706e-07
2.4248615e-05
1.3787696e-07
1.8207156e-07
2.405269e-05
1.3459266e-07
1.7400572e-07
2.3863854e-05
1.3146459e-07
1.6645988e-07
2.3681684e-05
1.2848057e-07
1.5938924e-07
2.3505794e-05
1.256292e-07
1.5275411e-07
2.3335829e-05
1.2289869e-07
1.465197e-07
2.3171462e-05
1.2027639e-07
1.406546e-07
2.3012394e-05
1.1775475e-07
1.3513019e-07
2.2858345e-05
1.1532973e-07
1.2992044e-07
2.2709057e-05
1.1299539e-07
1.2500175e-07
2.2564291e-05
1.1074517e-07
1.2035289e-07
2.2423824e-05
1.0857346e-07
1.1595459e-07
2.2287451e-05
1.0647549e-07
1.1178927e-07
2.2154978e-05
1.0444703e-07
1.0784082e-07
2.2026226e-05
1.0248419e-07
1.040946e-07
2.1901025e-05
1.0058351e-07
1.0053716e-07
2.1779218e-05
9.8741511e-08
9.7156172e-08
2.1660658e-05
9.6954882e-08
9.3940274e-08
2.1545205e-05
9.5221274e-08
9.0879061e-08
2.1432729e-05
9.3538803e-08
8.7962818e-08
2.1323107e-05
9.1905289e-08
8.5182597e-08
2.1216222e-05
9.0318487e-08
8.2530192e-08
2.1111965e-05
8.8776402e-08
7.9997896e-08
2.1010233e-05
8.7277088e-08
7.7578638e-08
2.0910927e-05
8.5818934e-08
7.5265869e-08
2.0813956e-05
8.4400298e-08
7.3053404e-08
2.0719232e-05
8.3019653e-08
7.0935637e-08
2.0626671e-05
8.1675605e-08
6.8907185e-08
2.0536195e-05
8.0366801e-08
6.6963125e-08
2.0447729e-05
7.9091916e-08
6.5098777e-08
2.0361203e-05
7.7849842e-08
6.3309754e-08
2.0276548e-05
7.6639233e-08
6.1592062e-08
2.0193702e-05
7.5458987e-08
5.9941739e-08
2.0112602e-05
7.4307977e-08
5.8355233e-08
2.0033193e-05
7.3184936e-08
5.6829073e-08
1.9955419e-05
7.2088636e-08
5.535998e-08
1.9879228e-05
7.1017653e-08
5.3944846e-08
1.9804572e-05
6.9970415e-08
5.2580725e-08
1.9731406e-05
6.8945242e-08
5.1264789e-08
1.9659685e-05
6.7940088e-08
4.9994393e-08
1.9589371e-05
6.6952994e-08
4.8767027e-08
1.9520423e-05
6.5982334e-08
4.7580527e-08
1.9452807e-05
6.5027981e-08
4.643309e-08
1.9386482e-05
6.4094106e-08
4.5323783e-08
1.9321404e-05
6.3194671e-08
4.4253098e-08
1.9257511e-05
6.2366309e-08
4.322526e-08
1.9194705e-05
6.1695152e-08
4.2253141e-08
1.9132798e-05
6.1374091e-08
4.1377401e-08
1.9071394e-05
6.1822407e-08
4.0750669e-08
1.9009424e-05
6.3924713e-08
4.1057634e-08
1.8944661e-05
6.9304667e-08
4.3998859e-08
7.917094e-08
7.4661523e-08
0.0001054937
1.9169871e-06
6.4880406e-06
0.00010005365
3.2729596e-06
6.5816334e-06
9.4926077e-05
3.8288995e-06
6.1580776e-06
8.9946373e-05
3.9838109e-06
5.9262629e-06
8.5163276e-05
3.9595077e-06
5.6547657e-06
8.0619137e-05
3.7899368e-06
5.3103784e-06
7.6329462e-05
3.5015547e-06
4.9350725e-06
7.230016e-05
3.1412013e-06
4.5559928e-06
6.8534206e-05
2.7514802e-06
4.1846641e-06
6.5032983e-05
2.3633493e-06
3.8278852e-06
6.1795789e-05
1.9984144e-06
3.490711e-06
5.8818843e-05
1.670376e-06
3.176301e-06
5.6094717e-05
1.3858295e-06
2.886043e-06
5.3612488e-05
1.1457945e-06
2.6200649e-06
5.1358373e-05
9.476412e-07
2.3777043e-06
4.9316593e-05
7.8676786e-07
2.1578272e-06
4.7470246e-05
6.5779549e-07
1.9590391e-06
4.5802069e-05
5.5532545e-07
1.7798252e-06
4.4295042e-05
4.743712e-07
1.6186378e-06
4.293283e-05
4.1056672e-07
1.473948e-06
4.1700078e-05
3.602324e-07
1.3442759e-06
4.0582591e-05
3.2035747e-07
1.2282094e-06
3.956742e-05
2.8853737e-07
1.1244154e-06
3.8642881e-05
2.6289064e-07
1.0316467e-06
3.7798527e-05
2.4196984e-07
9.48744e-07
3.7025076e-05
2.2467704e-07
8.7465169e-07
3.6314324e-05
2.1018901e-07
8.084041e-07
3.5659057e-05
1.9788602e-07
7.4911041e-07
3.5052961e-05
1.8731582e-07
6.9597281e-07
3.4490519e-05
1.781487e-07
6.4827381e-07
3.3966922e-05
1.7013168e-07
6.0537439e-07
3.3477973e-05
1.6306728e-07
5.6670865e-07
3.3020016e-05
1.5680297e-07
5.3177541e-07
3.2589865e-05
1.5122054e-07
5.0013242e-07
3.218474e-05
1.4622561e-07
4.7139134e-07
3.1802215e-05
1.4174073e-07
4.4521232e-07
3.1440168e-05
1.3770094e-07
4.212981e-07
3.1096739e-05
1.3405097e-07
3.9938925e-07
3.0770297e-05
1.3074294e-07
3.7925956e-07
3.0459402e-05
1.2773516e-07
3.6071197e-07
3.0162787e-05
1.2499093e-07
3.4357479e-07
2.9879325e-05
1.2247785e-07
3.276985e-07
2.960802e-05
1.2016734e-07
3.1295271e-07
2.934798e-05
1.1803382e-07
2.9922354e-07
2.9098408e-05
1.1605464e-07
2.8641139e-07
2.885859e-05
1.1420983e-07
2.7442902e-07
2.8627882e-05
1.1248192e-07
2.6319999e-07
2.8405701e-05
1.108556e-07
2.5265684e-07
2.819152e-05
1.0931757e-07
2.4274024e-07
2.7984859e-05
1.0785648e-07
2.3339755e-07
2.7785279e-05
1.0646277e-07
2.2458213e-07
2.7592378e-05
1.0512869e-07
2.1625214e-07
2.740579e-05
1.0384734e-07
2.0837032e-07
2.7225174e-05
1.0261119e-07
2.0090362e-07
2.705022e-05
1.0140746e-07
1.9382257e-07
2.6880641e-05
1.0023382e-07
1.8710044e-07
2.6716166e-05
9.9092346e-08
1.8071225e-07
2.6556546e-05
9.7980006e-08
1.7463556e-07
2.6401548e-05
9.689254e-08
1.6885012e-07
2.6250957e-05
9.5827119e-08
1.6333743e-07
2.610457e-05
9.4781712e-08
1.5808042e-07
2.5962199e-05
9.3754722e-08
1.530636e-07
2.5823666e-05
9.2744887e-08
1.4827262e-07
2.5688804e-05
9.1751012e-08
1.4369413e-07
2.5557458e-05
9.0771789e-08
1.3931599e-07
2.5429481e-05
8.9805164e-08
1.3512693e-07
2.5304734e-05
8.8851448e-08
1.3111646e-07
2.5183087e-05
8.7911223e-08
1.2727467e-07
2.5064416e-05
8.6983916e-08
1.2359241e-07
2.4948604e-05
8.6068901e-08
1.2006121e-07
2.4835542e-05
8.5165764e-08
1.1667302e-07
2.4725124e-05
8.4274293e-08
1.1342045e-07
2.4617252e-05
8.3394247e-08
1.1029656e-07
2.4511832e-05
8.2525453e-08
1.0729477e-07
2.4408775e-05
8.1667728e-08
1.0440898e-07
2.4307997e-05
8.0820974e-08
1.0163343e-07
2.4209416e-05
7.9985003e-08
9.8962637e-08
2.4112956e-05
7.915973e-08
9.6391564e-08
2.4018546e-05
7.8345036e-08
9.3915281e-08
2.3926115e-05
7.7540694e-08
9.1529325e-08
2.3835598e-05
7.6746536e-08
8.9229271e-08
2.3746933e-05
7.5962313e-08
8.7011038e-08
2.366006e-05
7.5187643e-08
8.4870706e-08
2.3574922e-05
7.4421959e-08
8.2804522e-08
2.3491466e-05
7.3664624e-08
8.0808936e-08
2.3409641e-05
7.291459e-08
7.888037e-08
2.33294e-05
7.2170667e-08
7.7015514e-08
2.3250698e-05
7.1431275e-08
7.5211025e-08
2.3173493e-05
7.0694866e-08
7.3463638e-08
2.3097745e-05
6.9960201e-08
7.1770067e-08
2.3023418e-05
6.9227977e-08
7.0127022e-08
2.2950477e-05
6.8503499e-08
6.8531209e-08
2.2878889e-05
6.7802879e-08
6.6979708e-08
2.2808619e-05
6.7165062e-08
6.5471587e-08
2.2739625e-05
6.667524e-08
6.401334e-08
2.267185e-05
6.6507091e-08
6.2642324e-08
2.2605149e-05
6.6990724e-08
6.1532392e-08
2.2538888e-05
6.8686056e-08
6.149993e-08
2.2471121e-05
7.222698e-08
6.4845145e-08
7.6722831e-08
9.846133e-08
0.0001051979
1.3340884e-06
6.4961221e-06
9.9496561e-05
2.3731022e-06
6.6011947e-06
9.4262459e-05
2.9019224e-06
6.1610799e-06
8.9251186e-05
3.0856641e-06
5.9094196e-06
8.4493497e-05
3.0947347e-06
5.6224614e-06
8.0033635e-05
2.9846657e-06
5.265134e-06
7.5876907e-05
2.7790155e-06
4.8792667e-06
7.2014635e-05
2.5106844e-06
4.4927895e-06
6.8436293e-05
2.2128728e-06
4.1169489e-06
6.5131387e-05
1.9107259e-06
3.7575291e-06
6.208941e-05
1.621732e-06
3.4186596e-06
5.9299432e-05
1.3573878e-06
3.1029661e-06
5.6749589e-05
1.1240344e-06
2.8116386e-06
5.4426788e-05
9.2377948e-07
2.5448158e-06
5.2316754e-05
7.5572801e-07
2.3019466e-06
5.0404313e-05
6.1717858e-07
2.0820302e-06
4.8673788e-05
5.0454353e-07
1.8837772e-06
4.7109414e-05
4.1397182e-07
1.7057274e-06
4.5695713e-05
3.4173652e-07
1.5463363e-06
4.4417792e-05
2.8445146e-07
1.4040359e-06
4.3261575e-05
2.3917115e-07
1.2772781e-06
4.2213952e-05
2.0341505e-07
1.1645652e-06
4.1262871e-05
1.7514746e-07
1.0644719e-06
4.039737e-05
1.5273234e-07
9.7565898e-07
3.9607583e-05
1.348753e-07
8.9688144e-07
3.8884688e-05
1.205557e-07
8.2701639e-07
3.8220848e-05
1.0901091e-07
7.6501854e-07
3.7609155e-05
9.9633865e-08
7.0994486e-07
3.7043542e-05
9.1977466e-08
6.6095087e-07
3.6518702e-05
8.5705828e-08
6.1728289e-07
3.6030009e-05
8.0552395e-08
5.7827311e-07
3.5573433e-05
7.6308258e-08
5.4333414e-07
3.5145475e-05
7.2811239e-08
5.1195029e-07
3.4743091e-05
6.9934105e-08
4.836702e-07
3.4363641e-05
6.7575421e-08
4.5810065e-07
3.4004828e-05
6.5652905e-08
4.3489995e-07
3.3664659e-05
6.4098577e-08
4.137721e-07
3.3341393e-05
6.2855914e-08
3.9446096e-07
3.3033513e-05
6.1877012e-08
3.7674527e-07
3.2739693e-05
6.1121097e-08
3.6043422e-07
3.2458768e-05
6.0553077e-08
3.4536327e-07
3.2189712e-05
6.0142671e-08
3.3139054e-07
3.1931622e-05
5.9863675e-08
3.1839373e-07
3.1683696e-05
5.9693169e-08
3.0626735e-07
3.1445219e-05
5.9611219e-08
2.949201e-07
3.1215555e-05
5.9600624e-08
2.8427317e-07
3.0994132e-05
5.964652e-08
2.7425807e-07
3.0780436e-05
5.973616e-08
2.6481541e-07
3.0574002e-05
5.9858656e-08
2.5589333e-07
3.0374407e-05
6.0004925e-08
2.4744663e-07
3.0181267e-05
6.0167616e-08
2.394355e-07
2.9994229e-05
6.0341237e-08
2.3182487e-07
2.9812971e-05
6.0521804e-08
2.2458371e-07
2.9637193e-05
6.0704484e-08
2.1768455e-07
2.9466629e-05
6.0867272e-08
2.1110458e-07
2.9301024e-05
6.1017e-08
2.0482183e-07
2.914014e-05
6.116087e-08
1.988157e-07
2.8983756e-05
6.1294971e-08
1.9306837e-07
2.8831669e-05
6.1415467e-08
1.8756387e-07
2.8683688e-05
6.1520965e-08
1.8228766e-07
2.8539633e-05
6.1610568e-08
1.7722636e-07
2.8399336e-05
6.168381e-08
1.7236785e-07
2.8262639e-05
6.1740479e-08
1.6770091e-07
2.8129394e-05
6.17807e-08
1.6321518e-07
2.7999461e-05
6.1803879e-08
1.5890121e-07
2.7872709e-05
6.1807356e-08
1.5475036e-07
2.7749012e-05
6.1793548e-08
1.5075444e-07
2.7628253e-05
6.1764818e-08
1.4690556e-07
2.7510319e-05
6.172099e-08
1.4319661e-07
2.7395105e-05
6.1662112e-08
1.3962081e-07
2.728251e-05
6.1588576e-08
1.3617199e-07
2.7172439e-05
6.1501035e-08
1.3284419e-07
2.7064802e-05
6.1399959e-08
1.2963191e-07
2.6959511e-05
6.128592e-08
1.2652989e-07
2.6856486e-05
6.1159502e-08
1.2353325e-07
2.6755649e-05
6.1021278e-08
1.2063729e-07
2.6656924e-05
6.0871844e-08
1.1783767e-07
2.6560242e-05
6.0711703e-08
1.1513015e-07
2.6465535e-05
6.0541344e-08
1.1251077e-07
2.6372738e-05
6.0361329e-08
1.0997578e-07
2.6281791e-05
6.0171925e-08
1.0752159e-07
2.6192636e-05
5.9973526e-08
1.0514468e-07
2.6105215e-05
5.9766283e-08
1.0284183e-07
2.6019477e-05
5.9550249e-08
1.0060975e-07
2.5935371e-05
5.9325131e-08
9.8445273e-08
2.585285e-05
5.9090477e-08
9.634538e-08
2.5771868e-05
5.8845504e-08
9.4306925e-08
2.5692384e-05
5.8588974e-08
9.2326774e-08
2.5614357e-05
5.8319779e-08
9.0401444e-08
2.5537753e-05
5.8037059e-08
8.8527351e-08
2.5462539e-05
5.7741617e-08
8.6700225e-08
2.5388689e-05
5.7438369e-08
8.491514e-08
2.5316184e-05
5.7141437e-08
8.3166615e-08
2.5245017e-05
5.6882586e-08
8.1449637e-08
2.51752e-05
5.6726029e-08
7.9765797e-08
2.510677e-05
5.678792e-08
7.8149197e-08
2.5039729e-05
5.7251597e-08
7.6780967e-08
2.4973573e-05
5.8330943e-08
7.651023e-08
2.4906079e-05
5.9989477e-08
7.97322e-08
6.0715006e-08
1.1287824e-07
0.00010503672
9.0789371e-07
6.5005614e-06
9.9140653e-05
1.6524914e-06
6.6166802e-06
9.3788329e-05
2.0825241e-06
6.1717217e-06
8.8708526e-05
2.2549373e-06
5.91053e-06
8.3909682e-05
2.278404e-06
5.6151748e-06
7.9437109e-05
2.2074821e-06
5.2497564e-06
7.5296201e-05
2.0645348e-06
4.8553893e-06
7.1474034e-05
1.8722543e-06
4.460597e-06
6.7955013e-05
1.6547667e-06
4.0771269e-06
6.4723621e-05
1.4313505e-06
3.7107669e-06
6.1764423e-05
1.2154298e-06
3.3655007e-06
5.9062056e-05
1.0158641e-06
3.0438911e-06
5.6601108e-05
8.3782744e-07
2.7471548e-06
5.4365944e-05
6.8344651e-07
2.475497e-06
5.2340648e-05
5.525853e-07
2.2284384e-06
5.0509125e-05
4.4366552e-07
2.0050361e-06
4.8855299e-05
3.5433458e-07
1.8040352e-06
4.7363353e-05
2.8193591e-07
1.6239821e-06
4.6017963e-05
2.2381345e-07
1.4633127e-06
4.4804503e-05
1.7749384e-07
1.320418e-06
4.3709199e-05
1.407809e-07
1.1936935e-06
4.2719248e-05
1.1179159e-07
1.081575e-06
4.1822875e-05
8.8954523e-08
9.8256581e-07
4.1009364e-05
7.098801e-08
8.9525473e-07
4.0269054e-05
5.6861837e-08
8.1832383e-07
3.9593306e-05
4.5719139e-08
7.5058476e-07
3.8974405e-05
3.6977846e-08
6.9093438e-07
3.8405585e-05
3.0067366e-08
6.3838631e-07
3.7880869e-05
2.4650841e-08
5.9204241e-07
3.7395029e-05
2.0439978e-08
5.5110604e-07
3.6943514e-05
1.7190282e-08
5.1487713e-07
3.6522366e-05
1.471676e-08
4.8273958e-07
3.6128148e-05
1.2874764e-08
4.5415391e-07
3.5757883e-05
1.1549865e-08
4.2864943e-07
3.5408991e-05
1.0650765e-08
4.0581704e-07
3.5079238e-05
1.0103601e-08
3.8530228e-07
3.4766689e-05
9.8482449e-09
3.6679881e-07
3.4469668e-05
9.8350954e-09
3.5004233e-07
3.4186716e-05
1.0022891e-08
3.348055e-07
3.3916567e-05
1.0377033e-08
3.2089287e-07
3.3658116e-05
1.0868065e-08
3.0813657e-07
3.3410395e-05
1.1470988e-08
2.9639283e-07
3.3172556e-05
1.2164237e-08
2.8553825e-07
3.2943852e-05
1.2929303e-08
2.7546717e-07
3.2723625e-05
1.3750157e-08
2.6608893e-07
3.2511286e-05
1.4613066e-08
2.573257e-07
3.2306316e-05
1.5506233e-08
2.4911066e-07
3.2108246e-05
1.6419579e-08
2.4138621e-07
3.1916658e-05
1.7344601e-08
2.3410269e-07
3.1731171e-05
1.827432e-08
2.2721715e-07
3.1551444e-05
1.9203153e-08
2.2069217e-07
3.1377162e-05
2.0127749e-08
2.1449507e-07
3.1208038e-05
2.1048679e-08
2.0859679e-07
3.10438e-05
2.1972794e-08
2.0297054e-07
3.0884232e-05
2.2827854e-08
1.9760737e-07
3.0729103e-05
2.3662952e-08
1.924823e-07
3.05782e-05
2.4490003e-08
1.8757381e-07
3.0431331e-05
2.5296281e-08
1.8286762e-07
3.0288318e-05
2.6077987e-08
1.7835076e-07
3.0148994e-05
2.6834328e-08
1.7401106e-07
3.0013202e-05
2.75647e-08
1.6983754e-07
2.9880797e-05
2.8268955e-08
1.6582026e-07
2.975164e-05
2.8947448e-08
1.6195013e-07
2.9625601e-05
2.9600775e-08
1.5821895e-07
2.9502557e-05
3.0228563e-08
1.546192e-07
2.9382396e-05
3.0823585e-08
1.5114464e-07
2.9265007e-05
3.1393115e-08
1.4778877e-07
2.9150287e-05
3.1939552e-08
1.4454538e-07
2.9038137e-05
3.2461859e-08
1.4140898e-07
2.8928465e-05
3.296006e-08
1.3837458e-07
2.8821181e-05
3.3434723e-08
1.3543749e-07
2.8716203e-05
3.3886336e-08
1.3259328e-07
2.8613449e-05
3.4315529e-08
1.2983785e-07
2.8512845e-05
3.4722873e-08
1.2716737e-07
2.8414317e-05
3.5108929e-08
1.2457815e-07
2.8317797e-05
3.547442e-08
1.2206678e-07
2.8223219e-05
3.5819882e-08
1.1963006e-07
2.813052e-05
3.6145898e-08
1.1726491e-07
2.803964e-05
3.6453059e-08
1.149684e-07
2.7950522e-05
3.6741855e-08
1.1273775e-07
2.7863111e-05
3.7012804e-08
1.1057029e-07
2.7777355e-05
3.7266242e-08
1.0846342e-07
2.7693204e-05
3.7502454e-08
1.0641474e-07
2.761061e-05
3.7721601e-08
1.0442174e-07
2.752953e-05
3.7923544e-08
1.0248202e-07
2.744992e-05
3.8107966e-08
1.0059306e-07
2.7371738e-05
3.8274265e-08
9.8752282e-08
2.7294949e-05
3.8421544e-08
9.6956904e-08
2.7219516e-05
3.8548719e-08
9.5203645e-08
2.714541e-05
3.8655098e-08
9.3488598e-08
2.7072603e-05
3.8741087e-08
9.180694e-08
2.7001079e-05
3.8810242e-08
9.0152312e-08
2.6930832e-05
3.8872102e-08
8.8516592e-08
2.6861876e-05
3.8947387e-08
8.6890552e-08
2.679426e-05
3.9073535e-08
8.5269183e-08
2.6728065e-05
3.9306972e-08
8.3675919e-08
2.6663337e-05
3.9708323e-08
8.2271159e-08
2.659956e-05
4.0271993e-08
8.1836207e-08
2.6534295e-05
4.0698031e-08
8.455576e-08
3.9620866e-08
1.1507133e-07
0.00010494757
5.6811082e-07
6.5033076e-06
9.8925416e-05
1.0462983e-06
6.6283517e-06
9.3480449e-05
1.3439845e-06
6.1835065e-06
8.8341777e-05
1.4751324e-06
5.9184762e-06
8.3502084e-05
1.4993911e-06
5.6187065e-06
7.9004057e-05
1.4572411e-06
5.2482679e-06
7.4853978e-05
1.3667382e-06
4.8478757e-06
7.1037378e-05
1.2423973e-06
4.4464569e-06
6.7536063e-05
1.0997693e-06
4.0563128e-06
6.4331998e-05
9.5192362e-07
3.683491e-06
6.1407318e-05
8.0805756e-07
3.3320524e-06
5.8744339e-05
6.7422203e-07
3.0046208e-06
5.6325632e-05
5.54044e-07
2.7024907e-06
5.4133973e-05
4.4916748e-07
2.4259383e-06
5.2152298e-05
3.5972403e-07
2.174536e-06
5.0363747e-05
2.8484513e-07
1.9473718e-06
4.875178e-05
2.2310007e-07
1.7432015e-06
4.7300339e-05
1.7281167e-07
1.5605647e-06
4.5994012e-05
1.3226572e-07
1.3978748e-06
4.4818177e-05
9.9840019e-08
1.2534891e-06
4.3759121e-05
7.4075621e-08
1.1257614e-06
4.2804123e-05
5.3707632e-08
1.0130814e-06
4.1941503e-05
3.7671221e-08
9.1390376e-07
4.1160627e-05
2.5096467e-08
8.2676732e-07
4.0451891e-05
1.5294181e-08
7.5030386e-07
3.980679e-05
7.5281796e-09
6.8329174e-07
3.9217543e-05
1.6727514e-09
6.24552e-07
3.8677513e-05
-3.0331209e-09
5.7313081e-07
3.8180739e-05
-6.6486964e-09
5.2807353e-07
3.7722004e-05
-9.3595015e-09
4.8853451e-07
3.7296777e-05
-1.1371791e-08
4.5378926e-07
3.6901112e-05
-1.2818247e-08
4.2319914e-07
3.6531588e-05
-1.3805302e-08
3.962048e-07
3.6185236e-05
-1.4417502e-08
3.7231877e-07
3.5859491e-05
-1.4721895e-08
3.5111776e-07
3.5552132e-05
-1.4772689e-08
3.3223579e-07
3.5261237e-05
-1.4613969e-08
3.1535729e-07
3.4985143e-05
-1.4282191e-08
3.0021091e-07
3.472241e-05
-1.3807699e-08
2.8656377e-07
3.4471787e-05
-1.3215874e-08
2.7421631e-07
3.4232185e-05
-1.252819e-08
2.6299767e-07
3.4002657e-05
-1.1762779e-08
2.5276174e-07
3.3782373e-05
-1.0935233e-08
2.4338336e-07
3.3570606e-05
-1.0058815e-08
2.3475555e-07
3.3366714e-05
-9.1447248e-09
2.2678672e-07
3.3170131e-05
-8.202841e-09
2.1939832e-07
3.2980356e-05
-7.2412151e-09
2.1252301e-07
3.279694e-05
-6.2668805e-09
2.0610284e-07
3.2619482e-05
-5.2855577e-09
2.0008784e-07
3.2447623e-05
-4.3018483e-09
1.9443479e-07
3.228104e-05
-3.3190481e-09
1.8910587e-07
3.2119438e-05
-2.3383086e-09
1.8406735e-07
3.1962554e-05
-1.3530243e-09
1.7928646e-07
3.1810075e-05
-2.763343e-10
1.7472765e-07
3.1661878e-05
5.8583429e-10
1.7043904e-07
3.1517732e-05
1.4356289e-09
1.6637295e-07
3.1377429e-05
2.3038367e-09
1.6248958e-07
3.1240792e-05
3.1586345e-09
1.5877485e-07
3.1107656e-05
3.9969504e-09
1.5521719e-07
3.0977867e-05
4.8171782e-09
1.5180548e-07
3.0851284e-05
5.6179902e-09
1.4852969e-07
3.0727774e-05
6.3990669e-09
1.4538078e-07
3.0607209e-05
7.1609656e-09
1.4235052e-07
3.0489473e-05
7.9059545e-09
1.394312e-07
3.037445e-05
8.6357318e-09
1.3661576e-07
3.0262049e-05
9.3206378e-09
1.3390395e-07
3.0152163e-05
9.9937887e-09
1.3128565e-07
3.0044697e-05
1.0650362e-08
1.2875513e-07
2.9939564e-05
1.1286726e-08
1.2630831e-07
2.983668e-05
1.1903197e-08
1.2394089e-07
2.9735965e-05
1.2500131e-08
1.2164882e-07
2.9637345e-05
1.3077885e-08
1.1942848e-07
2.9540748e-05
1.3636703e-08
1.172762e-07
2.9446105e-05
1.4177e-08
1.1518881e-07
2.9353352e-05
1.4699132e-08
1.1316338e-07
2.9262425e-05
1.5203502e-08
1.1119702e-07
2.9173268e-05
1.5690468e-08
1.0928706e-07
2.9085822e-05
1.6160398e-08
1.0743108e-07
2.9000035e-05
1.6613612e-08
1.0562666e-07
2.8915855e-05
1.7050391e-08
1.0387156e-07
2.8833233e-05
1.747114e-08
1.0216361e-07
2.8752123e-05
1.7875967e-08
1.0050084e-07
2.8672479e-05
1.8265121e-08
9.8881103e-08
2.8594259e-05
1.8638565e-08
9.7302489e-08
2.8517424e-05
1.8996234e-08
9.5762933e-08
2.8441934e-05
1.9337816e-08
9.4260366e-08
2.8367753e-05
1.9662794e-08
9.2792328e-08
2.8294848e-05
1.9970457e-08
9.1356257e-08
2.8223187e-05
2.0259963e-08
8.994885e-08
2.8152746e-05
2.05307e-08
8.856593e-08
2.8083503e-05
2.0782601e-08
8.7201822e-08
2.8015447e-05
2.1017504e-08
8.584868e-08
2.7948582e-05
2.1240707e-08
8.4495842e-08
2.7882937e-05
2.1462705e-08
8.3129514e-08
2.7818575e-05
2.1699972e-08
8.1736506e-08
2.7755588e-05
2.1969278e-08
8.0324362e-08
2.7694014e-05
2.2266169e-08
7.9016089e-08
2.7633299e-05
2.2506293e-08
7.8480677e-08
2.7571004e-05
2.2393411e-08
8.0599456e-08
2.0993113e-08
1.0779946e-07
0.00010489986
2.7443379e-07
6.5049155e-06
9.8802772e-05
5.0716635e-07
6.6362236e-06
9.329591e-05
6.5854976e-07
6.1922972e-06
8.8116302e-05
7.2902546e-07
5.9257147e-06
8.3248198e-05
7.4378816e-07