/*--------------------------------*- C++ -*----------------------------------*\
  =========                 |
  \\      /  F ield         | OpenFOAM: The Open Source CFD Toolbox
   \\    /   O peration     | Website:  https://openfoam.org
    \\  /    A nd           | Version:  7
     \\/     M anipulation  |
\*---------------------------------------------------------------------------*/
FoamFile
{
    version     2.0;
    format      ascii;
    class       volVectorField;
    location    "1600/water";
    object      U;
}
// * * * * * * * * * * * * * * * * * * * * * * * * * * * * * * * * * * * * * //

dimensions      [0 1 -1 0 0 0 0];

internalField   nonuniform List<vector> 
54000
(
(0.0090020934 0.00020305973 0.00020444027)
(0.0083186447 0.00023622738 0.00023904411)
(0.0073695241 0.00021363852 0.00021763527)
(0.0063566114 0.00018488016 0.00018965819)
(0.0054486673 0.00015530835 0.00016048633)
(0.0046741594 0.00012529952 0.00013052937)
(0.0040193038 9.705261e-05 0.00010203017)
(0.0034740067 7.2578999e-05 7.7073288e-05)
(0.0030302461 5.2876127e-05 5.6738329e-05)
(0.0026757323 3.8068151e-05 4.1216512e-05)
(0.0023947254 2.7637704e-05 3.003714e-05)
(0.0021713898 2.0689035e-05 2.2336508e-05)
(0.0019919695 1.6236161e-05 1.7152703e-05)
(0.0018455015 1.3416237e-05 1.3643174e-05)
(0.0017237326 1.1582489e-05 1.1179123e-05)
(0.0016206928 1.0304891e-05 9.3455816e-06)
(0.0015321593 9.3257901e-06 7.8957159e-06)
(0.0014551546 8.5052968e-06 6.6953115e-06)
(0.0013875459 7.7746344e-06 5.6760575e-06)
(0.0013277612 7.1034286e-06 4.8034861e-06)
(0.001274601 6.47985e-06 4.0581558e-06)
(0.0012271179 5.8999453e-06 3.426157e-06)
(0.0011845424 5.3625305e-06 2.8950711e-06)
(0.001146235 4.8670215e-06 2.4526289e-06)
(0.0011116558 4.4125995e-06 2.0869764e-06)
(0.0010803434 3.998013e-06 1.786745e-06)
(0.0010519002 3.6214601e-06 1.5416127e-06)
(0.0010259819 3.2805944e-06 1.3421848e-06)
(0.001002289 2.9733963e-06 1.1797302e-06)
(0.00098056199 2.6979492e-06 1.0463194e-06)
(0.00096057571 2.4519215e-06 9.365898e-07)
(0.00094213242 2.232567e-06 8.4693443e-07)
(0.00092505792 2.0373873e-06 7.7316652e-07)
(0.00090920047 1.864089e-06 7.1184204e-07)
(0.00089442818 1.7104621e-06 6.6046685e-07)
(0.0008806259 1.5743828e-06 6.1707346e-07)
(0.00086769295 1.4538618e-06 5.8005318e-07)
(0.00085554128 1.3470709e-06 5.4811515e-07)
(0.00084409387 1.25235e-06 5.2023926e-07)
(0.00083328322 1.1681989e-06 4.9562773e-07)
(0.00082305015 1.093262e-06 4.7365326e-07)
(0.00081334267 1.0262293e-06 4.5378421e-07)
(0.00080411486 9.6585904e-07 4.3554562e-07)
(0.00079532615 9.1131131e-07 4.1865051e-07)
(0.0007869407 8.6191676e-07 4.0290755e-07)
(0.00077892675 8.1708333e-07 3.8816871e-07)
(0.00077125603 7.7627665e-07 3.7432162e-07)
(0.0007639033 7.390256e-07 3.6127655e-07)
(0.00075684598 7.0491509e-07 3.4896361e-07)
(0.00075006373 6.7357564e-07 3.3733224e-07)
(0.00074353822 6.4469397e-07 3.2633656e-07)
(0.00073725294 6.180258e-07 3.1581838e-07)
(0.00073119314 5.9334783e-07 3.0574348e-07)
(0.00072534528 5.7041942e-07 2.9621038e-07)
(0.00071969687 5.4902535e-07 2.8716657e-07)
(0.00071423653 5.2901529e-07 2.7854347e-07)
(0.00070895386 5.1027386e-07 2.7031148e-07)
(0.00070383928 4.9268678e-07 2.6244858e-07)
(0.00069888397 4.7614479e-07 2.5493196e-07)
(0.00069407976 4.6054952e-07 2.4774296e-07)
(0.00068941911 4.4582133e-07 2.408644e-07)
(0.00068489502 4.3188531e-07 2.3427689e-07)
(0.00068050098 4.1868019e-07 2.2796426e-07)
(0.00067623091 4.0614723e-07 2.2191197e-07)
(0.00067207915 3.9423526e-07 2.1610579e-07)
(0.00066804042 3.8289818e-07 2.1053104e-07)
(0.00066410976 3.7209412e-07 2.0517824e-07)
(0.00066028251 3.6179402e-07 2.000322e-07)
(0.00065655429 3.5196281e-07 1.9508358e-07)
(0.00065292099 3.425695e-07 1.9031801e-07)
(0.00064937872 3.3358649e-07 1.8572816e-07)
(0.00064592384 3.2498735e-07 1.8130527e-07)
(0.00064255288 3.1675126e-07 1.7704045e-07)
(0.00063926261 3.0885602e-07 1.7292396e-07)
(0.00063604992 3.0128269e-07 1.6895141e-07)
(0.00063291192 2.9401391e-07 1.6511186e-07)
(0.00062984582 2.8703083e-07 1.6139804e-07)
(0.00062684904 2.8032167e-07 1.5780323e-07)
(0.00062391907 2.7387008e-07 1.5432043e-07)
(0.00062105358 2.6766522e-07 1.5094195e-07)
(0.00061825035 2.6169448e-07 1.4766135e-07)
(0.00061550727 2.5594512e-07 1.4446964e-07)
(0.00061282235 2.5040725e-07 1.4135921e-07)
(0.00061019373 2.4506933e-07 1.3832382e-07)
(0.00060761965 2.3991924e-07 1.353559e-07)
(0.00060509846 2.3494674e-07 1.3244773e-07)
(0.00060262863 2.3013514e-07 1.2959868e-07)
(0.00060020873 2.2546918e-07 1.2680451e-07)
(0.00059783744 2.2093062e-07 1.2407535e-07)
(0.00059551348 2.1649903e-07 1.2143415e-07)
(0.00059323555 2.1214837e-07 1.1892926e-07)
(0.00059100214 2.0787139e-07 1.1666193e-07)
(0.00058881114 2.0369005e-07 1.1483043e-07)
(0.00058665898 1.9973104e-07 1.138195e-07)
(0.0005845387 1.9638364e-07 1.1441076e-07)
(0.00058243501 1.9487342e-07 1.1837393e-07)
(0.00058031396 1.9977544e-07 1.3094432e-07)
(0.0005781161 2.2258492e-07 1.6397674e-07)
(0.00057566369 1.9706929e-07 1.508074e-07)
(0.00056906201 7.8896377e-07 7.5322642e-07)
(0.0095316863 0.0003313754 0.00022336697)
(0.0092716504 0.00041105942 0.00027052342)
(0.0087756651 0.00040317187 0.00026060063)
(0.0081527518 0.00038218754 0.00024252081)
(0.0075302151 0.00035309574 0.00022101124)
(0.0069425889 0.00031541062 0.00019648834)
(0.006391209 0.00027309198 0.00017102969)
(0.0058791845 0.00023030694 0.00014652546)
(0.0054120202 0.00019001855 0.00012410997)
(0.0049926512 0.00015423459 0.00010436627)
(0.004620592 0.00012408347 8.7479017e-05)
(0.0042931332 9.9809404e-05 7.3327496e-05)
(0.0040063965 8.0956425e-05 6.1601504e-05)
(0.0037559538 6.6672211e-05 5.1918795e-05)
(0.0035372541 5.5985801e-05 4.3907445e-05)
(0.003345947 4.7992056e-05 3.7246646e-05)
(0.0031780884 4.194171e-05 3.1677529e-05)
(0.0030302311 3.7262446e-05 2.6997921e-05)
(0.0028994324 3.3540997e-05 2.3051138e-05)
(0.0027832152 3.0490244e-05 1.9714593e-05)
(0.0026795075 2.7915735e-05 1.6890543e-05)
(0.0025865783 2.5687841e-05 1.4499383e-05)
(0.002502978 2.3720892e-05 1.2475016e-05)
(0.0024274871 2.195843e-05 1.0761725e-05)
(0.0023590736 2.0362993e-05 9.3122321e-06)
(0.0022968589 1.8909454e-05 8.0861286e-06)
(0.0022400906 1.7580768e-05 7.0489618e-06)
(0.0021881216 1.63649e-05 6.1714963e-06)
(0.0021403932 1.5251965e-05 5.4283134e-06)
(0.0020964214 1.4233849e-05 4.7973501e-06)
(0.0020557868 1.330304e-05 4.2604811e-06)
(0.0020181236 1.2451987e-05 3.8027035e-06)
(0.0019831119 1.167391e-05 3.4109611e-06)
(0.0019504718 1.0962756e-05 3.074421e-06)
(0.0019199589 1.0312853e-05 2.7842604e-06)
(0.0018913593 9.7188341e-06 2.5331802e-06)
(0.0018644851 9.1756452e-06 2.315073e-06)
(0.0018391716 8.6785727e-06 2.1248318e-06)
(0.0018152735 8.2232432e-06 1.9581836e-06)
(0.001792663 7.8056214e-06 1.8115684e-06)
(0.0017712268 7.4219985e-06 1.6820116e-06)
(0.001750865 7.0689375e-06 1.5670704e-06)
(0.0017314886 6.7432685e-06 1.4647427e-06)
(0.0017130186 6.4422736e-06 1.3732749e-06)
(0.0016953848 6.1635571e-06 1.2911589e-06)
(0.0016785241 5.9049782e-06 1.2171197e-06)
(0.00166238 5.6646098e-06 1.1500853e-06)
(0.0016469019 5.4407245e-06 1.0891496e-06)
(0.001632044 5.2317782e-06 1.0335541e-06)
(0.0016177649 5.0363853e-06 9.8265403e-07)
(0.0016040271 4.853323e-06 9.3589377e-07)
(0.0015907965 4.6815631e-06 8.9273758e-07)
(0.0015780424 4.5201582e-06 8.5278727e-07)
(0.0015657364 4.3681547e-06 8.1577022e-07)
(0.0015538526 4.2246832e-06 7.813844e-07)
(0.0015423672 4.0890616e-06 7.4934453e-07)
(0.0015312583 3.9607292e-06 7.1941293e-07)
(0.0015205058 3.8391515e-06 6.9138716e-07)
(0.0015100909 3.7238121e-06 6.65094e-07)
(0.0014999963 3.614242e-06 6.4037978e-07)
(0.0014902061 3.5100301e-06 6.1710895e-07)
(0.0014807053 3.4107989e-06 5.9516071e-07)
(0.00147148 3.3162129e-06 5.7442728e-07)
(0.0014625175 3.2259604e-06 5.5481497e-07)
(0.0014538055 3.1397562e-06 5.3623595e-07)
(0.0014453328 3.0573363e-06 5.1861316e-07)
(0.0014370889 2.9784702e-06 5.0187919e-07)
(0.0014290637 2.9029585e-06 4.8596781e-07)
(0.001421248 2.8306027e-06 4.7082406e-07)
(0.001413633 2.7612176e-06 4.5639249e-07)
(0.0014062104 2.6946333e-06 4.4262831e-07)
(0.0013989723 2.6306902e-06 4.2948705e-07)
(0.0013919116 2.5692449e-06 4.1693039e-07)
(0.0013850211 2.5101625e-06 4.0492046e-07)
(0.0013782945 2.4533185e-06 3.9342445e-07)
(0.0013717253 2.3985957e-06 3.8241052e-07)
(0.0013653078 2.3458828e-06 3.7185137e-07)
(0.0013590364 2.2950865e-06 3.617178e-07)
(0.0013529058 2.2461034e-06 3.5198388e-07)
(0.001346911 2.1988493e-06 3.4262565e-07)
(0.0013410472 2.1532412e-06 3.3362015e-07)
(0.0013353099 2.1091951e-06 3.249457e-07)
(0.001329695 2.0666375e-06 3.1657856e-07)
(0.0013241983 2.0254892e-06 3.0849935e-07)
(0.001318816 1.9856731e-06 3.006896e-07)
(0.0013135446 1.947115e-06 2.9312949e-07)
(0.0013083808 1.9097271e-06 2.85806e-07)
(0.0013033213 1.8734238e-06 2.7870225e-07)
(0.0012983632 1.8381139e-06 2.7181672e-07)
(0.0012935038 1.8037146e-06 2.6515395e-07)
(0.0012887402 1.7701688e-06 2.5874306e-07)
(0.0012840698 1.7375328e-06 2.5265053e-07)
(0.0012794889 1.7061208e-06 2.4701472e-07)
(0.0012749925 1.6769098e-06 2.4211405e-07)
(0.001270572 1.6524671e-06 2.3851913e-07)
(0.0012662098 1.6393333e-06 2.3765994e-07)
(0.0012618709 1.6545771e-06 2.4458253e-07)
(0.0012574959 1.7463718e-06 2.7712602e-07)
(0.0012529717 2.0376713e-06 2.6526516e-07)
(0.0012433358 2.9514816e-06 1.3525338e-06)
(0.0095221617 0.00021179965 0.00022180582)
(0.009269783 0.00029872516 0.00026628967)
(0.0088657772 0.00031669844 0.00025526743)
(0.0083755729 0.000317438 0.00023864265)
(0.0078888426 0.00030841043 0.00021987851)
(0.0074276349 0.00028848207 0.00019850458)
(0.006988258 0.00026048391 0.00017617916)
(0.0065698164 0.00022855168 0.00015444521)
(0.0061756011 0.00019596771 0.00013413534)
(0.0058087146 0.00016504409 0.00011567593)
(0.0054706295 0.00013728621 9.9270839e-05)
(0.0051615551 0.00011345265 8.494783e-05)
(0.0048808654 9.3684509e-05 7.2600737e-05)
(0.0046272998 7.7712988e-05 6.2044901e-05)
(0.0043991196 6.5057026e-05 5.3064543e-05)
(0.0041942886 5.5163888e-05 4.544363e-05)
(0.0040106431 4.7493349e-05 3.8982754e-05)
(0.0038460219 4.1561377e-05 3.3506381e-05)
(0.0036983537 3.6958193e-05 2.8864075e-05)
(0.0035657105 3.3351175e-05 2.4928487e-05)
(0.0034463343 3.0479502e-05 2.1592135e-05)
(0.003338646 2.8144768e-05 1.8764099e-05)
(0.003241243 2.6200154e-05 1.6367139e-05)
(0.0031528887 2.4539752e-05 1.4335369e-05)
(0.0030724986 2.3088866e-05 1.261249e-05)
(0.0029991252 2.1796111e-05 1.1150134e-05)
(0.0029319421 2.0626903e-05 9.9064822e-06)
(0.0028702292 1.9558163e-05 8.8458154e-06)
(0.0028133589 1.8574038e-05 7.9385379e-06)
(0.0027607855 1.7663622e-05 7.1598232e-06)
(0.0027120345 1.6818832e-05 6.4890354e-06)
(0.0026666927 1.6033066e-05 5.9090198e-06)
(0.0026243991 1.5301096e-05 5.405272e-06)
(0.0025848383 1.461882e-05 4.9656526e-06)
(0.0025477347 1.3982713e-05 4.5801139e-06)
(0.0025128472 1.3389544e-05 4.2403257e-06)
(0.002479964 1.2836281e-05 3.9393551e-06)
(0.0024488994 1.2320059e-05 3.6714255e-06)
(0.0024194896 1.1838145e-05 3.4317261e-06)
(0.00239159 1.138794e-05 3.2162519e-06)
(0.0023650729 1.0966986e-05 3.0216609e-06)
(0.0023398248 1.0573e-05 2.8451741e-06)
(0.0023157449 1.0203874e-05 2.6844744e-06)
(0.0022927433 9.857582e-06 2.5375946e-06)
(0.0022707398 9.5322167e-06 2.4028648e-06)
(0.002249662 9.2260293e-06 2.2788666e-06)
(0.0022294453 8.9374189e-06 2.1644005e-06)
(0.0022100312 8.6649287e-06 2.0584381e-06)
(0.0021913666 8.4072381e-06 1.9601019e-06)
(0.0021734038 8.1631548e-06 1.8686318e-06)
(0.0021560989 7.9316213e-06 1.7833668e-06)
(0.0021394122 7.7117242e-06 1.7037078e-06)
(0.0021233074 7.5026035e-06 1.6291514e-06)
(0.0021077512 7.3033804e-06 1.5592839e-06)
(0.0020927129 7.1131888e-06 1.4937195e-06)
(0.0020781645 6.9314171e-06 1.4321038e-06)
(0.0020640799 6.7576066e-06 1.3741142e-06)
(0.0020504351 6.591262e-06 1.3194621e-06)
(0.0020372075 6.4318788e-06 1.2678951e-06)
(0.0020243766 6.279005e-06 1.2191872e-06)
(0.0020119231 6.1322412e-06 1.1731331e-06)
(0.001999829 5.9912213e-06 1.1295443e-06)
(0.0019880776 5.8556114e-06 1.0882503e-06)
(0.0019766531 5.7251049e-06 1.0490959e-06)
(0.0019655411 5.599408e-06 1.0119381e-06)
(0.0019547276 5.4782446e-06 9.7664632e-07)
(0.0019441999 5.3613903e-06 9.4310158e-07)
(0.0019339458 5.2486485e-06 9.1119007e-07)
(0.0019239539 5.1398173e-06 8.8080749e-07)
(0.0019142135 5.0347007e-06 8.5186067e-07)
(0.0019047144 4.9331186e-06 8.2425997e-07)
(0.001895447 4.8348992e-06 7.9792458e-07)
(0.0018864023 4.7398892e-06 7.7278047e-07)
(0.0018775718 4.6479425e-06 7.4875535e-07)
(0.0018689473 4.558922e-06 7.2578733e-07)
(0.0018605211 4.4726987e-06 7.0381342e-07)
(0.0018522861 4.3891512e-06 6.8277784e-07)
(0.0018442353 4.3081682e-06 6.6262608e-07)
(0.0018363621 4.2296387e-06 6.4330742e-07)
(0.0018286604 4.1534574e-06 6.2477753e-07)
(0.0018211241 4.0795284e-06 6.0698854e-07)
(0.0018137478 4.0077533e-06 5.8990084e-07)
(0.0018065261 3.9380369e-06 5.7347336e-07)
(0.001799454 3.8702808e-06 5.5766754e-07)
(0.0017925266 3.8043826e-06 5.4244717e-07)
(0.0017857396 3.7402369e-06 5.2777845e-07)
(0.0017790885 3.6777267e-06 5.1362898e-07)
(0.0017725695 3.6167256e-06 4.9996979e-07)
(0.0017661787 3.5571062e-06 4.8677447e-07)
(0.0017599128 3.4987599e-06 4.7402475e-07)
(0.0017537682 3.441652e-06 4.6170958e-07)
(0.0017477416 3.3859638e-06 4.4983694e-07)
(0.0017418294 3.3323819e-06 4.384433e-07)
(0.0017360272 3.2827914e-06 4.2764746e-07)
(0.0017303281 3.2417775e-06 4.1776834e-07)
(0.0017247202 3.2200413e-06 4.0999075e-07)
(0.001719183 3.2421551e-06 4.0984967e-07)
(0.001713691 3.3643437e-06 4.4114485e-07)
(0.0017081999 3.7072188e-06 4.735345e-07)
(0.0016974804 4.4611199e-06 1.8634986e-06)
(0.0095012861 0.00013951169 0.00022248511)
(0.0092133349 0.00022408324 0.00026709763)
(0.0088018509 0.0002570094 0.00025529581)
(0.0083306071 0.00026690691 0.0002382081)
(0.0078754299 0.00026502159 0.00021939837)
(0.0074527063 0.0002529565 0.00019823245)
(0.0070564396 0.00023295893 0.00017634609)
(0.0066827538 0.00020836345 0.0001552305)
(0.006331873 0.00018203353 0.00013558338)
(0.0060047052 0.00015603739 0.00011769036)
(0.0057015056 0.00013180401 0.00010166909)
(0.0054220192 0.00011020725 8.7524315e-05)
(0.0051656909 9.1631901e-05 7.5171987e-05)
(0.0049316845 7.6091187e-05 6.4472618e-05)
(0.0047188814 6.3363143e-05 5.5261149e-05)
(0.0045259349 5.3104942e-05 4.736682e-05)
(0.0043513547 4.4932759e-05 4.0624899e-05)
(0.0041935865 3.8471362e-05 3.4883032e-05)
(0.0040510752 3.3381246e-05 3.0003995e-05)
(0.0039223115 2.9370511e-05 2.5866182e-05)
(0.0038058643 2.6197264e-05 2.2362868e-05)
(0.0037004012 2.3666732e-05 1.9400963e-05)
(0.0036047 2.1625759e-05 1.6899611e-05)
(0.0035176529 1.9956327e-05 1.4788824e-05)
(0.0034382652 1.8569047e-05 1.3008104e-05)
(0.0033656513 1.7397361e-05 1.1504744e-05)
(0.0032990266 1.6392002e-05 1.0233523e-05)
(0.0032376995 1.5516239e-05 9.1565343e-06)
(0.0031810636 1.4743888e-05 8.2421114e-06)
(0.0031285885 1.4056151e-05 7.4635753e-06)
(0.0030798115 1.3438894e-05 6.7985201e-06)
(0.0030343294 1.288115e-05 6.2282217e-06)
(0.0029917905 1.2374495e-05 5.7369822e-06)
(0.0029518882 1.191242e-05 5.3116666e-06)
(0.0029143553 1.1489691e-05 4.941353e-06)
(0.0028789586 1.1101928e-05 4.6170004e-06)
(0.0028454946 1.0745379e-05 4.3311221e-06)
(0.0028137847 1.0416775e-05 4.0775285e-06)
(0.0027836727 1.0113218e-05 3.8511083e-06)
(0.0027550209 9.832121e-06 3.647646e-06)
(0.0027277081 9.57116e-06 3.4636646e-06)
(0.002701627 9.3282503e-06 3.2963005e-06)
(0.0026766823 9.1015157e-06 3.1431911e-06)
(0.0026527895 8.8892446e-06 3.0023826e-06)
(0.0026298729 8.6898929e-06 2.8722566e-06)
(0.0026078648 8.5020897e-06 2.7514699e-06)
(0.002586704 8.324617e-06 2.6389101e-06)
(0.0025663358 8.1563968e-06 2.5336417e-06)
(0.0025467102 7.9964761e-06 2.4348852e-06)
(0.002527782 7.8440265e-06 2.3419788e-06)
(0.0025095101 7.6983357e-06 2.2543617e-06)
(0.0024918566 7.5588094e-06 2.1715442e-06)
(0.0024747871 7.4248984e-06 2.0931112e-06)
(0.0024582699 7.2960219e-06 2.0187203e-06)
(0.0024422756 7.1714398e-06 1.9480692e-06)
(0.0024267775 7.0509282e-06 1.8808994e-06)
(0.0024117506 6.9343778e-06 1.8169528e-06)
(0.0023971715 6.8214909e-06 1.7560016e-06)
(0.0023830185 6.7119568e-06 1.6978515e-06)
(0.0023692714 6.6055391e-06 1.6423285e-06)
(0.0023559116 6.5020458e-06 1.5892714e-06)
(0.0023429214 6.4013092e-06 1.5385374e-06)
(0.0023302844 6.3031808e-06 1.4899941e-06)
(0.0023179851 6.207525e-06 1.443516e-06)
(0.0023060089 6.1142032e-06 1.3989942e-06)
(0.0022943424 6.0230671e-06 1.3563254e-06)
(0.0022829727 5.9340575e-06 1.315416e-06)
(0.0022718877 5.8471293e-06 1.2761704e-06)
(0.002261076 5.762203e-06 1.2385017e-06)
(0.0022505267 5.6791975e-06 1.2023314e-06)
(0.0022402296 5.5980415e-06 1.1675831e-06)
(0.0022301752 5.5186706e-06 1.1341877e-06)
(0.0022203542 5.4410287e-06 1.1020807e-06)
(0.002210758 5.3650611e-06 1.0711985e-06)
(0.0022013784 5.2907159e-06 1.0414841e-06)
(0.0021922076 5.2179474e-06 1.0128818e-06)
(0.0021832381 5.1467086e-06 9.8533748e-07)
(0.0021744628 5.0769559e-06 9.5880388e-07)
(0.0021658752 5.0086508e-06 9.3323024e-07)
(0.0021574688 4.9417451e-06 9.0857476e-07)
(0.0021492375 4.876198e-06 8.8479136e-07)
(0.0021411756 4.8119668e-06 8.6183937e-07)
(0.0021332776 4.7489995e-06 8.3967871e-07)
(0.0021255383 4.6872395e-06 8.1827022e-07)
(0.0021179527 4.6266222e-06 7.975778e-07)
(0.0021105161 4.5670658e-06 7.7756075e-07)
(0.0021032242 4.5084802e-06 7.5818463e-07)
(0.0020960727 4.4507526e-06 7.3941123e-07)
(0.0020890577 4.3937736e-06 7.2120329e-07)
(0.0020821756 4.3374536e-06 7.0352087e-07)
(0.002075423 4.2818093e-06 6.8632206e-07)
(0.0020687967 4.2271325e-06 6.6956207e-07)
(0.0020622937 4.1743536e-06 6.5320313e-07)
(0.002055911 4.1258136e-06 6.3726213e-07)
(0.0020496453 4.0868284e-06 6.2198443e-07)
(0.0020434926 4.0687781e-06 6.0874778e-07)
(0.0020374483 4.0948766e-06 6.0452249e-07)
(0.0020315149 4.2094257e-06 6.3987906e-07)
(0.0020256647 4.4797482e-06 7.1688553e-07)
(0.0020144539 4.9057765e-06 2.2695258e-06)
(0.0094902877 9.6726607e-05 0.00022289229)
(0.00917661 0.00016632333 0.00026788105)
(0.0087449457 0.00019969046 0.00025550648)
(0.0082664657 0.00021101604 0.00023762681)
(0.00781215 0.0002109939 0.0002181603)
(0.0073950862 0.0002028236 0.00019646328)
(0.0070087986 0.00018827265 0.00017418493)
(0.006648835 0.00016968865 0.0001528463)
(0.0063142174 0.00014929331 0.00013312182)
(0.0060045996 0.00012875288 0.0001152379)
(0.0057192201 0.00010923292 9.9256791e-05)
(0.0054570682 9.1490072e-05 8.514891e-05)
(0.0052170782 7.5923401e-05 7.2816211e-05)
(0.0049981259 6.2643332e-05 6.2119134e-05)
(0.0047989841 5.1561153e-05 5.2900048e-05)
(0.0046183234 4.247228e-05 4.4997976e-05)
(0.0044547458 3.5118727e-05 3.8256897e-05)
(0.0043068267 2.9230546e-05 3.2530442e-05)
(0.0041731526 2.4550836e-05 2.768434e-05)
(0.0040523509 2.0849112e-05 2.3597363e-05)
(0.0039431142 1.7926914e-05 2.0161346e-05)
(0.0038442168 1.5618601e-05 1.7280682e-05)
(0.0037545253 1.3789366e-05 1.4871531e-05)
(0.0036730042 1.2331759e-05 1.2860862e-05)
(0.0035987172 1.1161539e-05 1.1185211e-05)
(0.0035308247 1.0213367e-05 9.7889739e-06)
(0.0034685786 9.4380827e-06 8.6250711e-06)
(0.0034113173 8.7971279e-06 7.6543146e-06)
(0.0033584589 8.262721e-06 6.8439391e-06)
(0.0033094933 7.8140816e-06 6.166455e-06)
(0.0032639753 7.4348235e-06 5.5988459e-06)
(0.0032215172 7.1121293e-06 5.1219272e-06)
(0.0031817817 6.8360955e-06 4.7197275e-06)
(0.0031444758 6.5990197e-06 4.3789723e-06)
(0.0031093448 6.394779e-06 4.0886805e-06)
(0.0030761678 6.2184053e-06 3.839797e-06)
(0.0030447526 6.0657958e-06 3.6248787e-06)
(0.003014932 5.9335279e-06 3.4378181e-06)
(0.0029865602 5.8186963e-06 3.2736179e-06)
(0.0029595097 5.7188191e-06 3.1282041e-06)
(0.002933669 5.6317503e-06 2.9982608e-06)
(0.0029089401 5.5556264e-06 2.8810967e-06)
(0.0028852364 5.4888247e-06 2.7745329e-06)
(0.0028624815 5.4299144e-06 2.6768103e-06)
(0.0028406075 5.3776436e-06 2.5865046e-06)
(0.0028195538 5.3309231e-06 2.5024728e-06)
(0.0027992664 5.2888083e-06 2.4237892e-06)
(0.0027796963 5.250482e-06 2.3497113e-06)
(0.0027607998 5.2152412e-06 2.2796376e-06)
(0.002742537 5.1824972e-06 2.2130846e-06)
(0.0027248717 5.1517647e-06 2.1496552e-06)
(0.0027077708 5.1226671e-06 2.0890227e-06)
(0.0026912041 5.0948947e-06 2.0309195e-06)
(0.0026751435 5.0680872e-06 1.9751363e-06)
(0.0026595636 5.0410649e-06 1.9215396e-06)
(0.0026444411 5.0142589e-06 1.8699682e-06)
(0.002629754 4.9880179e-06 1.8202519e-06)
(0.0026154815 4.9620735e-06 1.7722784e-06)
(0.0026016045 4.9361417e-06 1.7259597e-06)
(0.0025881054 4.9100864e-06 1.681215e-06)
(0.0025749674 4.8838334e-06 1.6379659e-06)
(0.002562175 4.85734e-06 1.5961466e-06)
(0.0025497136 4.8305809e-06 1.5556934e-06)
(0.0025375693 4.8035396e-06 1.5165477e-06)
(0.0025257292 4.7761758e-06 1.4786609e-06)
(0.002514181 4.7483827e-06 1.4419861e-06)
(0.0025029134 4.7202739e-06 1.4064837e-06)
(0.0024919154 4.6919144e-06 1.3721018e-06)
(0.0024811765 4.6632896e-06 1.3387972e-06)
(0.002470687 4.6344015e-06 1.306528e-06)
(0.0024604377 4.6052653e-06 1.2752594e-06)
(0.0024504197 4.575907e-06 1.2449532e-06)
(0.0024406247 4.5463448e-06 1.2155757e-06)
(0.0024310448 4.5166002e-06 1.1870925e-06)
(0.0024216723 4.4866943e-06 1.1594724e-06)
(0.0024125001 4.4566501e-06 1.1326834e-06)
(0.0024035213 4.4264879e-06 1.1066973e-06)
(0.0023947295 4.3962279e-06 1.0814836e-06)
(0.0023861184 4.3658887e-06 1.0570128e-06)
(0.0023776821 4.3354871e-06 1.0332596e-06)
(0.0023694149 4.3050323e-06 1.0101963e-06)
(0.0023613115 4.2745347e-06 9.8779467e-07)
(0.0023533667 4.2439926e-06 9.6603068e-07)
(0.0023455757 4.2133958e-06 9.4487508e-07)
(0.0023379338 4.1827204e-06 9.2429935e-07)
(0.0023304365 4.1519249e-06 9.04276e-07)
(0.0023230798 4.1209532e-06 8.8477208e-07)
(0.0023158598 4.0897227e-06 8.657532e-07)
(0.0023087726 4.0581553e-06 8.4717309e-07)
(0.002301815 4.0261903e-06 8.2898155e-07)
(0.0022949838 3.9938762e-06 8.1110754e-07)
(0.0022882766 3.9615292e-06 7.9346206e-07)
(0.002281691 3.9300782e-06 7.7594324e-07)
(0.0022752261 3.9016916e-06 7.5847789e-07)
(0.002268882 3.8809393e-06 7.4124615e-07)
(0.0022626608 3.8766483e-06 7.2572691e-07)
(0.0022565686 3.9043038e-06 7.195792e-07)
(0.0022506189 3.9866557e-06 7.5579953e-07)
(0.0022447715 4.1391002e-06 8.4931867e-07)
(0.002233564 4.2832252e-06 2.4122113e-06)
(0.0094843561 6.6886586e-05 0.00022303624)
(0.0091549219 0.00011904886 0.00026838771)
(0.0087072816 0.00014772497 0.00025588053)
(0.0082191888 0.00015892952 0.00023765677)
(0.0077602858 0.00016026049 0.00021787142)
(0.0073412804 0.00015505102 0.00019586613)
(0.0069552494 0.00014481701 0.00017327438)
(0.0065978366 0.00013121474 0.00015165024)
(0.0062677954 0.00011592881 0.00013169211)
(0.0059642872 0.00010028521 0.0001136244)
(0.0056860598 8.5214432e-05 9.7497522e-05)
(0.0054316726 7.1330409e-05 8.3272195e-05)
(0.0051997008 5.8984298e-05 7.0844884e-05)
(0.0049887459 4.8311755e-05 6.0073373e-05)
(0.0047973943 3.9291584e-05 5.0798891e-05)
(0.0046242055 3.1804356e-05 4.2859902e-05)
(0.0044677269 2.5679087e-05 3.6099807e-05)
(0.0043265179 2.0725786e-05 3.0371291e-05)
(0.0041991724 1.6756345e-05 2.5538702e-05)
(0.004084339 1.3596838e-05 2.1479082e-05)
(0.0039807371 1.1093754e-05 1.8082323e-05)
(0.0038871692 9.1161651e-06 1.5250789e-05)
(0.0038025288 7.5553807e-06 1.2898646e-05)
(0.003725804 6.3231349e-06 1.0950987e-05)
(0.0036560786 5.3488196e-06 9.3426787e-06)
(0.0035925304 4.5751821e-06 8.0166137e-06)
(0.0035344253 3.9620991e-06 6.9239491e-06)
(0.0034811131 3.4726278e-06 6.0250729e-06)
(0.0034320221 3.0815203e-06 5.2862636e-06)
(0.0033866501 2.7702766e-06 4.6792097e-06)
(0.0033445586 2.5236737e-06 4.1805209e-06)
(0.0033053662 2.3295858e-06 3.7707532e-06)
(0.0032687419 2.1784958e-06 3.4337456e-06)
(0.0032343982 2.0629035e-06 3.156111e-06)
(0.0032020863 1.9768082e-06 2.9267973e-06)
(0.0031715907 1.9153169e-06 2.7367037e-06)
(0.0031427248 1.8743789e-06 2.5783566e-06)
(0.0031153267 1.8506046e-06 2.4456289e-06)
(0.0030892563 1.8411236e-06 2.3335218e-06)
(0.0030643915 1.8434988e-06 2.2379668e-06)
(0.003040626 1.8556442e-06 2.1556627e-06)
(0.0030178671 1.8757806e-06 2.0839518e-06)
(0.0029960335 1.9023812e-06 2.0206941e-06)
(0.0029750538 1.9341347e-06 1.9641814e-06)
(0.0029548649 1.9699147e-06 1.9130522e-06)
(0.0029354109 2.0087613e-06 1.8662264e-06)
(0.0029166424 2.0498568e-06 1.8228521e-06)
(0.0028985148 2.0925083e-06 1.782257e-06)
(0.0028809886 2.1361361e-06 1.7439144e-06)
(0.0028640277 2.1802703e-06 1.7074109e-06)
(0.0028476 2.2245498e-06 1.6724151e-06)
(0.0028316758 2.2687604e-06 1.6386551e-06)
(0.0028162284 2.3128941e-06 1.6058714e-06)
(0.0028012324 2.3570807e-06 1.5738225e-06)
(0.0027866658 2.3978712e-06 1.5431884e-06)
(0.0027725089 2.4362347e-06 1.5136875e-06)
(0.0027587418 2.4734397e-06 1.4848885e-06)
(0.002745346 2.5095349e-06 1.4567009e-06)
(0.002732305 2.5443504e-06 1.4291161e-06)
(0.0027196032 2.5777736e-06 1.4021112e-06)
(0.0027072261 2.609725e-06 1.3756637e-06)
(0.0026951602 2.6401663e-06 1.3497567e-06)
(0.0026833928 2.6690886e-06 1.324375e-06)
(0.0026719116 2.6965044e-06 1.2995089e-06)
(0.0026607054 2.7223728e-06 1.2751528e-06)
(0.0026497635 2.746355e-06 1.251313e-06)
(0.002639076 2.7689074e-06 1.2279781e-06)
(0.0026286333 2.790145e-06 1.205129e-06)
(0.0026184262 2.8099921e-06 1.1827606e-06)
(0.0026084461 2.8284313e-06 1.1608692e-06)
(0.0025986849 2.8454918e-06 1.1394487e-06)
(0.0025891348 2.8612165e-06 1.1184902e-06)
(0.0025797885 2.8756479e-06 1.097986e-06)
(0.002570639 2.8888294e-06 1.0779293e-06)
(0.0025616795 2.9008038e-06 1.0583094e-06)
(0.0025529038 2.9116179e-06 1.0391182e-06)
(0.0025443058 2.921313e-06 1.020348e-06)
(0.0025358796 2.929929e-06 1.0019896e-06)
(0.0025276198 2.9375049e-06 9.8403207e-07)
(0.002519521 2.9440786e-06 9.6646578e-07)
(0.0025115783 2.94968e-06 9.492799e-07)
(0.0025037869 2.9543363e-06 9.3246089e-07)
(0.0024961421 2.9580663e-06 9.1599991e-07)
(0.0024886396 2.9608811e-06 8.9987978e-07)
(0.0024812752 2.9627723e-06 8.8408513e-07)
(0.002474045 2.9637205e-06 8.6859426e-07)
(0.0024669452 2.9636874e-06 8.5338122e-07)
(0.0024599723 2.9626115e-06 8.3841404e-07)
(0.0024531231 2.960429e-06 8.2364376e-07)
(0.0024463945 2.9570953e-06 8.0900291e-07)
(0.0024397839 2.9526492e-06 7.943982e-07)
(0.0024332895 2.9473491e-06 7.7969359e-07)
(0.0024269099 2.9419122e-06 7.6470997e-07)
(0.0024206457 2.9379215e-06 7.4926046e-07)
(0.0024144993 2.9384188e-06 7.3336463e-07)
(0.0024084767 2.9484965e-06 7.1826392e-07)
(0.0024025877 2.9751242e-06 7.1113291e-07)
(0.002396846 3.0234609e-06 7.4331377e-07)
(0.0023911946 3.0808299e-06 8.3046751e-07)
(0.0023803644 3.057426e-06 2.2999444e-06)
(0.0094810492 4.4090136e-05 0.00022308885)
(0.0091422796 7.9975483e-05 0.00026874495)
(0.0086839084 0.00010160921 0.00025628771)
(0.0081880903 0.00011101591 0.00023793456)
(0.0077246858 0.00011275118 0.00021798622)
(0.0073029895 0.00010953687 0.00019578738)
(0.0069155191 0.00010266029 0.00017296032)
(0.0065579578 9.3267235e-05 0.0001510852)
(0.006229001 8.2539593e-05 0.00013089045)
(0.005927585 7.1446833e-05 0.00011261412)
(0.0056522063 6.0673361e-05 9.6309238e-05)
(0.0054012005 5.0670808e-05 8.1936266e-05)
(0.0051729477 4.170661e-05 6.9390832e-05)
(0.004965887 3.3898117e-05 5.8529097e-05)
(0.0047784814 2.7249955e-05 4.9189878e-05)
(0.0046092054 2.1693075e-05 4.1208773e-05)
(0.0044565535 1.7117438e-05 3.4426144e-05)
(0.0043190553 1.3395519e-05 2.8691659e-05)
(0.0041952917 1.0397811e-05 2.3866805e-05)
(0.0040839086 8.0023318e-06 1.9826012e-05)
(0.0039836292 6.099771e-06 1.6456862e-05)
(0.0038932634 4.5956633e-06 1.3659716e-05)
(0.0038117126 3.4106728e-06 1.1347012e-05)
(0.0037379734 2.4799295e-06 9.4422919e-06)
(0.0036711359 1.7515121e-06 7.8790888e-06)
(0.0036103859 1.1749056e-06 6.6010324e-06)
(0.0035549935 7.2234079e-07 5.5561195e-06)
(0.0035043108 3.7342483e-07 4.7060695e-06)
(0.0034577717 1.0569559e-07 4.0163441e-06)
(0.0034148763 -9.9089577e-08 3.457414e-06)
(0.0033751872 -2.533356e-07 3.0054954e-06)
(0.0033383243 -3.6639951e-07 2.640975e-06)
(0.0033039576 -4.4577957e-07 2.3475733e-06)
(0.0032718009 -4.9748528e-07 2.1118272e-06)
(0.0032416065 -5.2634633e-07 1.9226422e-06)
(0.0032131599 -5.363126e-07 1.7709153e-06)
(0.0031862758 -5.3064242e-07 1.6492032e-06)
(0.0031607936 -5.1206367e-07 1.5514416e-06)
(0.0031365743 -4.82873e-07 1.4727107e-06)
(0.0031134976 -4.4500708e-07 1.4090332e-06)
(0.0030914586 -4.0011239e-07 1.3572049e-06)
(0.0030703663 -3.4957864e-07 1.314657e-06)
(0.0030501409 -2.9459491e-07 1.2793307e-06)
(0.0030307129 -2.36171e-07 1.2495911e-06)
(0.0030120207 -1.7516588e-07 1.2241403e-06)
(0.0029940105 -1.1232239e-07 1.2019526e-06)
(0.0029766343 -4.8267892e-08 1.1822243e-06)
(0.0029598495 1.6448977e-08 1.1643224e-06)
(0.0029436181 8.1353678e-08 1.1477521e-06)
(0.002927906 1.460237e-07 1.1321245e-06)
(0.0029126825 2.1005812e-07 1.1171188e-06)
(0.0028979201 2.730502e-07 1.1024394e-06)
(0.0028835935 3.3454303e-07 1.0876601e-06)
(0.0028696773 3.9432391e-07 1.0722027e-06)
(0.0028561514 4.5704979e-07 1.0590086e-06)
(0.0028429997 5.206012e-07 1.0472578e-06)
(0.0028302035 5.8225375e-07 1.0356075e-06)
(0.0028177449 6.4163865e-07 1.0238006e-06)
(0.0028056084 6.9901846e-07 1.0118747e-06)
(0.0027937799 7.545621e-07 9.9986886e-07)
(0.0027822461 8.0835125e-07 9.8781051e-07)
(0.0027709946 8.6046936e-07 9.7571891e-07)
(0.0027600137 9.1102799e-07 9.6360201e-07)
(0.0027492926 9.6019614e-07 9.514467e-07)
(0.0027388207 1.008006e-06 9.392664e-07)
(0.0027285887 1.0528499e-06 9.2746475e-07)
(0.0027185878 1.0958659e-06 9.1582875e-07)
(0.0027088089 1.1374983e-06 9.0425343e-07)
(0.0026992438 1.1777658e-06 8.9276036e-07)
(0.0026898847 1.2166568e-06 8.8136665e-07)
(0.0026807244 1.2541694e-06 8.7007901e-07)
(0.0026717559 1.2903135e-06 8.5890827e-07)
(0.0026629726 1.3251064e-06 8.4785373e-07)
(0.0026543682 1.3585727e-06 8.3692249e-07)
(0.0026459367 1.3907376e-06 8.2612179e-07)
(0.0026376723 1.4216338e-06 8.1545318e-07)
(0.0026295698 1.4512888e-06 8.0491892e-07)
(0.0026216238 1.4797318e-06 7.9452288e-07)
(0.0026138294 1.5069915e-06 7.8426387e-07)
(0.002606182 1.5330924e-06 7.7414096e-07)
(0.0025986769 1.5580638e-06 7.6415168e-07)
(0.0025913099 1.581921e-06 7.5429586e-07)
(0.0025840769 1.6046813e-06 7.445647e-07)
(0.0025769739 1.6263498e-06 7.3495259e-07)