/*--------------------------------*- C++ -*----------------------------------*\
  =========                 |
  \\      /  F ield         | OpenFOAM: The Open Source CFD Toolbox
   \\    /   O peration     | Website:  https://openfoam.org
    \\  /    A nd           | Version:  7
     \\/     M anipulation  |
\*---------------------------------------------------------------------------*/
FoamFile
{
    version     2.0;
    format      ascii;
    class       volVectorField;
    location    "500/water";
    object      U;
}
// * * * * * * * * * * * * * * * * * * * * * * * * * * * * * * * * * * * * * //

dimensions      [0 1 -1 0 0 0 0];

internalField   nonuniform List<vector> 
54000
(
(0.0090020934 0.00020305973 0.00020444027)
(0.0083186447 0.00023622738 0.00023904411)
(0.0073695241 0.00021363852 0.00021763527)
(0.0063566114 0.00018488016 0.00018965819)
(0.0054486673 0.00015530835 0.00016048633)
(0.0046741594 0.00012529952 0.00013052937)
(0.0040193038 9.7052611e-05 0.00010203017)
(0.0034740067 7.2579e-05 7.7073288e-05)
(0.0030302461 5.2876127e-05 5.6738329e-05)
(0.0026757323 3.8068151e-05 4.1216512e-05)
(0.0023947254 2.7637704e-05 3.0037139e-05)
(0.0021713898 2.0689034e-05 2.2336509e-05)
(0.0019919695 1.6236161e-05 1.7152703e-05)
(0.0018455015 1.3416235e-05 1.3643172e-05)
(0.0017237326 1.1582489e-05 1.1179122e-05)
(0.0016206928 1.0304891e-05 9.345581e-06)
(0.0015321593 9.3257913e-06 7.8957165e-06)
(0.0014551546 8.5052963e-06 6.6953103e-06)
(0.0013875459 7.7746336e-06 5.6760582e-06)
(0.0013277612 7.1034285e-06 4.803486e-06)
(0.001274601 6.47985e-06 4.058156e-06)
(0.0012271179 5.8999457e-06 3.4261577e-06)
(0.0011845424 5.3625306e-06 2.8950715e-06)
(0.001146235 4.8670215e-06 2.4526296e-06)
(0.0011116558 4.4126002e-06 2.0869764e-06)
(0.0010803434 3.998013e-06 1.7867449e-06)
(0.0010519002 3.6214609e-06 1.541612e-06)
(0.0010259819 3.2805928e-06 1.3421855e-06)
(0.001002289 2.9733949e-06 1.1797309e-06)
(0.00098056199 2.6979498e-06 1.0463202e-06)
(0.00096057571 2.4519214e-06 9.3658953e-07)
(0.00094213242 2.2325668e-06 8.4693369e-07)
(0.00092505791 2.0373867e-06 7.7316548e-07)
(0.00090920047 1.8640897e-06 7.1184189e-07)
(0.00089442818 1.7104629e-06 6.6046732e-07)
(0.0008806259 1.5743835e-06 6.1707435e-07)
(0.00086769295 1.4538612e-06 5.8005372e-07)
(0.00085554128 1.3470713e-06 5.4811482e-07)
(0.00084409387 1.2523493e-06 5.2023885e-07)
(0.00083328322 1.1681986e-06 4.9562752e-07)
(0.00082305015 1.0932609e-06 4.7365409e-07)
(0.00081334267 1.02623e-06 4.5378338e-07)
(0.00080411486 9.6585957e-07 4.3554424e-07)
(0.00079532615 9.113118e-07 4.1865052e-07)
(0.0007869407 8.6191629e-07 4.029063e-07)
(0.00077892675 8.1708178e-07 3.8816784e-07)
(0.00077125603 7.7627609e-07 3.743211e-07)
(0.0007639033 7.3902554e-07 3.6127651e-07)
(0.00075684598 7.0491383e-07 3.4896338e-07)
(0.00075006373 6.7357519e-07 3.3733137e-07)
(0.00074353821 6.4469414e-07 3.2633707e-07)
(0.00073725293 6.1802639e-07 3.158181e-07)
(0.00073119313 5.9334716e-07 3.0574406e-07)
(0.00072534528 5.7041919e-07 2.9621198e-07)
(0.00071969687 5.4902485e-07 2.8716586e-07)
(0.00071423652 5.2901416e-07 2.7854297e-07)
(0.00070895386 5.1027436e-07 2.7031171e-07)
(0.00070383928 4.9268726e-07 2.6244809e-07)
(0.00069888397 4.7614513e-07 2.5493206e-07)
(0.00069407976 4.6054951e-07 2.4774375e-07)
(0.00068941911 4.4582079e-07 2.4086329e-07)
(0.00068489502 4.3188439e-07 2.3427533e-07)
(0.00068050098 4.1867913e-07 2.279632e-07)
(0.00067623091 4.0614652e-07 2.2191157e-07)
(0.00067207915 3.9423504e-07 2.161052e-07)
(0.00066804042 3.8289746e-07 2.1053074e-07)
(0.00066410976 3.7209432e-07 2.0517762e-07)
(0.00066028251 3.6179404e-07 2.0003328e-07)
(0.00065655429 3.5196289e-07 1.9508322e-07)
(0.00065292099 3.4256974e-07 1.9031834e-07)
(0.00064937872 3.3358618e-07 1.8572874e-07)
(0.00064592384 3.2498719e-07 1.8130571e-07)
(0.00064255288 3.1675139e-07 1.7704101e-07)
(0.00063926261 3.0885622e-07 1.7292419e-07)
(0.00063604992 3.0128217e-07 1.6895098e-07)
(0.00063291192 2.9401304e-07 1.6511121e-07)
(0.00062984582 2.8703061e-07 1.6139775e-07)
(0.00062684904 2.8032173e-07 1.5780335e-07)
(0.00062391907 2.7387076e-07 1.5432039e-07)
(0.00062105358 2.6766659e-07 1.5094247e-07)
(0.00061825035 2.6169501e-07 1.4766125e-07)
(0.00061550726 2.5594552e-07 1.444703e-07)
(0.00061282235 2.5040739e-07 1.4135958e-07)
(0.00061019373 2.4506897e-07 1.3832366e-07)
(0.00060761964 2.3991897e-07 1.3535645e-07)
(0.00060509845 2.349453e-07 1.3244886e-07)
(0.00060262862 2.301347e-07 1.2959822e-07)
(0.00060020873 2.2546974e-07 1.2680376e-07)
(0.00059783744 2.2093141e-07 1.2407531e-07)
(0.00059551348 2.1649841e-07 1.2143403e-07)
(0.00059323554 2.1214934e-07 1.1893009e-07)
(0.00059100213 2.0787251e-07 1.1666218e-07)
(0.00058881114 2.0369029e-07 1.1482996e-07)
(0.00058665898 1.9973173e-07 1.1381983e-07)
(0.00058453869 1.9638415e-07 1.1441143e-07)
(0.00058243501 1.948728e-07 1.1837355e-07)
(0.00058031396 1.9977435e-07 1.3094358e-07)
(0.0005781161 2.2258432e-07 1.6397613e-07)
(0.00057566369 1.9706934e-07 1.5080673e-07)
(0.000569062 7.8896469e-07 7.5322749e-07)
(0.0095316863 0.0003313754 0.00022336697)
(0.0092716504 0.00041105943 0.00027052342)
(0.0087756651 0.00040317187 0.00026060063)
(0.0081527518 0.00038218754 0.00024252081)
(0.0075302151 0.00035309574 0.00022101125)
(0.0069425889 0.00031541062 0.00019648834)
(0.006391209 0.00027309198 0.00017102969)
(0.0058791845 0.00023030694 0.00014652546)
(0.0054120202 0.00019001855 0.00012410997)
(0.0049926512 0.00015423459 0.00010436627)
(0.004620592 0.00012408347 8.7479017e-05)
(0.0042931332 9.9809402e-05 7.3327496e-05)
(0.0040063965 8.0956423e-05 6.1601503e-05)
(0.0037559538 6.6672209e-05 5.1918794e-05)
(0.0035372541 5.59858e-05 4.3907444e-05)
(0.003345947 4.7992057e-05 3.7246646e-05)
(0.0031780884 4.1941711e-05 3.1677529e-05)
(0.0030302311 3.7262446e-05 2.6997921e-05)
(0.0028994324 3.3540996e-05 2.3051138e-05)
(0.0027832152 3.0490244e-05 1.9714594e-05)
(0.0026795075 2.7915736e-05 1.6890543e-05)
(0.0025865783 2.5687842e-05 1.4499382e-05)
(0.002502978 2.3720893e-05 1.2475017e-05)
(0.0024274871 2.195843e-05 1.0761725e-05)
(0.0023590736 2.0362994e-05 9.3122323e-06)
(0.0022968589 1.8909454e-05 8.0861295e-06)
(0.0022400906 1.7580769e-05 7.048962e-06)
(0.0021881216 1.6364898e-05 6.1714977e-06)
(0.0021403932 1.5251962e-05 5.4283135e-06)
(0.0020964214 1.423385e-05 4.7973497e-06)
(0.0020557868 1.330304e-05 4.2604825e-06)
(0.0020181236 1.2451985e-05 3.8027036e-06)
(0.0019831119 1.1673909e-05 3.4109607e-06)
(0.0019504718 1.0962756e-05 3.0744206e-06)
(0.0019199589 1.0312855e-05 2.7842607e-06)
(0.0018913593 9.7188353e-06 2.5331798e-06)
(0.0018644851 9.175645e-06 2.3150739e-06)
(0.0018391716 8.6785723e-06 2.1248311e-06)
(0.0018152735 8.2232421e-06 1.9581838e-06)
(0.0017926629 7.8056212e-06 1.811568e-06)
(0.0017712268 7.4219976e-06 1.682012e-06)
(0.001750865 7.068938e-06 1.5670702e-06)
(0.0017314886 6.7432699e-06 1.4647436e-06)
(0.0017130186 6.4422741e-06 1.3732751e-06)
(0.0016953848 6.1635565e-06 1.2911593e-06)
(0.0016785241 5.9049761e-06 1.2171198e-06)
(0.00166238 5.6646085e-06 1.1500839e-06)
(0.0016469019 5.4407248e-06 1.0891487e-06)
(0.001632044 5.2317764e-06 1.0335522e-06)
(0.0016177648 5.0363841e-06 9.8265343e-07)
(0.0016040271 4.8533231e-06 9.3589407e-07)
(0.0015907965 4.6815632e-06 8.9273723e-07)
(0.0015780424 4.5201568e-06 8.5278733e-07)
(0.0015657364 4.3681537e-06 8.1576954e-07)
(0.0015538526 4.2246823e-06 7.813843e-07)
(0.0015423672 4.0890593e-06 7.4934493e-07)
(0.0015312583 3.9607299e-06 7.1941278e-07)
(0.0015205058 3.8391526e-06 6.9138706e-07)
(0.0015100909 3.723813e-06 6.6509384e-07)
(0.0014999963 3.6142435e-06 6.4037923e-07)
(0.0014902061 3.5100296e-06 6.1710754e-07)
(0.0014807053 3.4107985e-06 5.951606e-07)
(0.00147148 3.3162113e-06 5.7442789e-07)
(0.0014625175 3.2259587e-06 5.5481471e-07)
(0.0014538055 3.1397543e-06 5.3623478e-07)
(0.0014453328 3.057336e-06 5.1861272e-07)
(0.0014370889 2.9784704e-06 5.0187827e-07)
(0.0014290637 2.9029581e-06 4.8596795e-07)
(0.001421248 2.8306033e-06 4.7082394e-07)
(0.001413633 2.7612189e-06 4.563934e-07)
(0.0014062103 2.6946328e-06 4.4262934e-07)
(0.0013989723 2.6306901e-06 4.2948677e-07)
(0.0013919116 2.5692456e-06 4.1692992e-07)
(0.0013850212 2.5101628e-06 4.0492025e-07)
(0.0013782945 2.453318e-06 3.9342537e-07)
(0.0013717253 2.3985949e-06 3.8241117e-07)
(0.0013653078 2.3458841e-06 3.7185147e-07)
(0.0013590364 2.2950864e-06 3.6171745e-07)
(0.0013529058 2.2461047e-06 3.5198389e-07)
(0.001346911 2.1988526e-06 3.4262588e-07)
(0.0013410472 2.1532413e-06 3.3362066e-07)
(0.0013353099 2.1091962e-06 3.2494533e-07)
(0.001329695 2.0666371e-06 3.1657911e-07)
(0.0013241983 2.0254872e-06 3.0849915e-07)
(0.001318816 1.9856728e-06 3.0069052e-07)
(0.0013135446 1.947113e-06 2.9313035e-07)
(0.0013083808 1.9097257e-06 2.8580634e-07)
(0.0013033213 1.8734236e-06 2.7870287e-07)
(0.0012983632 1.8381143e-06 2.7181711e-07)
(0.0012935038 1.8037137e-06 2.6515464e-07)
(0.0012887402 1.7701712e-06 2.5874254e-07)
(0.0012840698 1.7375337e-06 2.5265102e-07)
(0.0012794889 1.7061213e-06 2.4701448e-07)
(0.0012749925 1.6769108e-06 2.4211338e-07)
(0.001270572 1.6524675e-06 2.3851886e-07)
(0.0012662098 1.6393334e-06 2.3766077e-07)
(0.0012618709 1.6545757e-06 2.4458171e-07)
(0.0012574959 1.7463705e-06 2.7712467e-07)
(0.0012529717 2.0376717e-06 2.6526483e-07)
(0.0012433358 2.9514824e-06 1.3525333e-06)
(0.0095221617 0.00021179965 0.00022180582)
(0.009269783 0.00029872516 0.00026628968)
(0.0088657772 0.00031669844 0.00025526743)
(0.0083755729 0.000317438 0.00023864265)
(0.0078888426 0.00030841043 0.00021987851)
(0.0074276349 0.00028848207 0.00019850457)
(0.006988258 0.00026048391 0.00017617916)
(0.0065698164 0.00022855168 0.00015444521)
(0.0061756011 0.00019596771 0.00013413534)
(0.0058087146 0.00016504408 0.00011567593)
(0.0054706295 0.00013728621 9.9270839e-05)
(0.0051615551 0.00011345265 8.4947831e-05)
(0.0048808654 9.3684507e-05 7.2600738e-05)
(0.0046272998 7.7712987e-05 6.2044902e-05)
(0.0043991196 6.5057026e-05 5.3064543e-05)
(0.0041942886 5.5163889e-05 4.5443629e-05)
(0.0040106431 4.7493347e-05 3.8982753e-05)
(0.0038460219 4.1561377e-05 3.3506381e-05)
(0.0036983537 3.6958194e-05 2.8864074e-05)
(0.0035657105 3.3351175e-05 2.4928486e-05)
(0.0034463343 3.0479503e-05 2.1592135e-05)
(0.003338646 2.8144769e-05 1.8764099e-05)
(0.003241243 2.6200154e-05 1.6367139e-05)
(0.0031528887 2.4539752e-05 1.4335369e-05)
(0.0030724986 2.3088867e-05 1.261249e-05)
(0.0029991252 2.1796113e-05 1.1150134e-05)
(0.0029319421 2.0626905e-05 9.9064814e-06)
(0.0028702292 1.9558163e-05 8.8458151e-06)
(0.0028133589 1.8574037e-05 7.9385372e-06)
(0.0027607855 1.7663623e-05 7.1598231e-06)
(0.0027120345 1.6818834e-05 6.4890365e-06)
(0.0026666927 1.6033066e-05 5.9090208e-06)
(0.0026243991 1.5301096e-05 5.4052725e-06)
(0.0025848382 1.461882e-05 4.9656533e-06)
(0.0025477347 1.3982714e-05 4.5801148e-06)
(0.0025128472 1.3389543e-05 4.2403268e-06)
(0.002479964 1.2836281e-05 3.9393563e-06)
(0.0024488994 1.2320057e-05 3.6714262e-06)
(0.0024194896 1.1838144e-05 3.4317262e-06)
(0.00239159 1.138794e-05 3.2162508e-06)
(0.0023650729 1.0966986e-05 3.0216606e-06)
(0.0023398248 1.0572999e-05 2.8451746e-06)
(0.0023157449 1.0203874e-05 2.6844744e-06)
(0.0022927433 9.8575817e-06 2.5375944e-06)
(0.0022707398 9.5322168e-06 2.4028636e-06)
(0.002249662 9.2260287e-06 2.2788669e-06)
(0.0022294453 8.937419e-06 2.1644004e-06)
(0.0022100312 8.6649298e-06 2.0584386e-06)
(0.0021913666 8.4072388e-06 1.9601009e-06)
(0.0021734038 8.163155e-06 1.8686317e-06)
(0.0021560989 7.9316207e-06 1.783367e-06)
(0.0021394122 7.7117236e-06 1.7037078e-06)
(0.0021233074 7.5026025e-06 1.6291516e-06)
(0.0021077512 7.3033798e-06 1.5592838e-06)
(0.0020927129 7.1131873e-06 1.4937191e-06)
(0.0020781645 6.9314146e-06 1.4321044e-06)
(0.0020640799 6.7576052e-06 1.3741136e-06)
(0.0020504351 6.5912619e-06 1.319462e-06)
(0.0020372075 6.4318806e-06 1.2678951e-06)
(0.0020243766 6.2790065e-06 1.2191865e-06)
(0.0020119231 6.1322407e-06 1.1731313e-06)
(0.001999829 5.9912204e-06 1.1295438e-06)
(0.0019880776 5.8556108e-06 1.0882499e-06)
(0.0019766531 5.7251038e-06 1.0490951e-06)
(0.0019655411 5.5994086e-06 1.0119374e-06)
(0.0019547276 5.4782466e-06 9.7664553e-07)
(0.0019441999 5.3613913e-06 9.4310053e-07)
(0.0019339458 5.2486484e-06 9.1118907e-07)
(0.0019239539 5.1398185e-06 8.808077e-07)
(0.0019142135 5.0347023e-06 8.5186073e-07)
(0.0019047144 4.9331189e-06 8.2425961e-07)
(0.001895447 4.8349003e-06 7.9792477e-07)
(0.0018864023 4.7398911e-06 7.7278093e-07)
(0.0018775718 4.647943e-06 7.4875648e-07)
(0.0018689473 4.5589223e-06 7.2578763e-07)
(0.0018605211 4.4726996e-06 7.0381479e-07)
(0.0018522861 4.389154e-06 6.8277833e-07)
(0.0018442353 4.3081692e-06 6.6262492e-07)
(0.0018363621 4.2296391e-06 6.4330775e-07)
(0.0018286604 4.1534587e-06 6.2477695e-07)
(0.0018211241 4.0795283e-06 6.0698793e-07)
(0.0018137478 4.0077539e-06 5.8990126e-07)
(0.0018065261 3.938036e-06 5.7347339e-07)
(0.001799454 3.8702782e-06 5.5766684e-07)
(0.0017925266 3.804382e-06 5.4244756e-07)
(0.0017857395 3.7402368e-06 5.2777829e-07)
(0.0017790885 3.6777263e-06 5.1362869e-07)
(0.0017725695 3.6167264e-06 4.9997132e-07)
(0.0017661787 3.5571068e-06 4.867759e-07)
(0.0017599128 3.49876e-06 4.7402635e-07)
(0.0017537682 3.441655e-06 4.617096e-07)
(0.0017477416 3.385964e-06 4.4983571e-07)
(0.0017418294 3.3323828e-06 4.3844341e-07)
(0.0017360272 3.2827921e-06 4.276463e-07)
(0.001730328 3.2417779e-06 4.177694e-07)
(0.0017247202 3.2200419e-06 4.0999071e-07)
(0.001719183 3.242156e-06 4.0984896e-07)
(0.001713691 3.3643441e-06 4.4114436e-07)
(0.0017081999 3.7072211e-06 4.7353489e-07)
(0.0016974804 4.4611202e-06 1.8634998e-06)
(0.0095012861 0.00013951169 0.00022248511)
(0.0092133349 0.00022408324 0.00026709763)
(0.0088018509 0.0002570094 0.00025529581)
(0.0083306071 0.00026690691 0.0002382081)
(0.0078754299 0.00026502159 0.00021939837)
(0.0074527063 0.0002529565 0.00019823245)
(0.0070564396 0.00023295893 0.00017634609)
(0.0066827538 0.00020836345 0.0001552305)
(0.006331873 0.00018203353 0.00013558338)
(0.0060047052 0.00015603739 0.00011769036)
(0.0057015056 0.00013180401 0.00010166909)
(0.0054220192 0.00011020725 8.7524314e-05)
(0.0051656909 9.16319e-05 7.5171985e-05)
(0.0049316845 7.6091186e-05 6.4472618e-05)
(0.0047188814 6.3363143e-05 5.5261149e-05)
(0.0045259349 5.3104941e-05 4.736682e-05)
(0.0043513547 4.4932757e-05 4.0624899e-05)
(0.0041935865 3.8471359e-05 3.4883031e-05)
(0.0040510752 3.3381245e-05 3.0003995e-05)
(0.0039223115 2.937051e-05 2.5866181e-05)
(0.0038058643 2.6197262e-05 2.2362868e-05)
(0.0037004012 2.3666731e-05 1.9400963e-05)
(0.0036047 2.1625757e-05 1.6899611e-05)
(0.0035176529 1.9956327e-05 1.4788823e-05)
(0.0034382652 1.8569048e-05 1.3008103e-05)
(0.0033656513 1.7397362e-05 1.1504744e-05)
(0.0032990266 1.6392004e-05 1.0233523e-05)
(0.0032376995 1.5516242e-05 9.1565348e-06)
(0.0031810636 1.4743888e-05 8.2421123e-06)
(0.0031285885 1.4056153e-05 7.463575e-06)
(0.0030798115 1.3438895e-05 6.7985195e-06)
(0.0030343294 1.2881152e-05 6.2282225e-06)
(0.0029917905 1.2374496e-05 5.736983e-06)
(0.0029518882 1.191242e-05 5.3116675e-06)
(0.0029143553 1.1489692e-05 4.9413534e-06)
(0.0028789586 1.1101928e-05 4.6170002e-06)
(0.0028454946 1.0745378e-05 4.331122e-06)
(0.0028137847 1.0416774e-05 4.0775283e-06)
(0.0027836727 1.0113218e-05 3.8511086e-06)
(0.0027550209 9.83212e-06 3.6476458e-06)
(0.0027277081 9.5711588e-06 3.463664e-06)
(0.002701627 9.3282494e-06 3.2963009e-06)
(0.0026766823 9.1015152e-06 3.1431919e-06)
(0.0026527895 8.8892441e-06 3.0023823e-06)
(0.0026298729 8.6898931e-06 2.8722562e-06)
(0.0026078648 8.5020891e-06 2.7514706e-06)
(0.002586704 8.324617e-06 2.63891e-06)
(0.0025663358 8.1563973e-06 2.5336425e-06)
(0.0025467102 7.9964776e-06 2.4348841e-06)
(0.002527782 7.8440273e-06 2.3419776e-06)
(0.0025095101 7.6983353e-06 2.2543613e-06)
(0.0024918566 7.558809e-06 2.1715442e-06)
(0.0024747871 7.4248982e-06 2.0931126e-06)
(0.0024582699 7.2960212e-06 2.0187209e-06)
(0.0024422756 7.1714379e-06 1.9480695e-06)
(0.0024267775 7.0509277e-06 1.8808983e-06)
(0.0024117506 6.9343767e-06 1.8169523e-06)
(0.0023971715 6.8214895e-06 1.7560017e-06)
(0.0023830185 6.7119576e-06 1.697851e-06)
(0.0023692714 6.605539e-06 1.6423293e-06)
(0.0023559116 6.5020448e-06 1.5892731e-06)
(0.0023429214 6.4013071e-06 1.5385383e-06)
(0.0023302844 6.3031798e-06 1.4899931e-06)
(0.0023179851 6.2075248e-06 1.4435163e-06)
(0.0023060089 6.114205e-06 1.3989938e-06)
(0.0022943424 6.0230689e-06 1.3563249e-06)
(0.0022829727 5.9340591e-06 1.3154149e-06)
(0.0022718877 5.8471298e-06 1.2761701e-06)
(0.002261076 5.7622036e-06 1.2385018e-06)
(0.0022505267 5.6791983e-06 1.2023313e-06)
(0.0022402296 5.5980425e-06 1.1675828e-06)
(0.0022301752 5.518673e-06 1.1341883e-06)
(0.0022203542 5.441031e-06 1.1020803e-06)
(0.002210758 5.3650623e-06 1.0711994e-06)
(0.0022013784 5.2907179e-06 1.0414842e-06)
(0.0021922076 5.2179492e-06 1.0128826e-06)
(0.0021832381 5.1467111e-06 9.8533831e-07)
(0.0021744628 5.0769583e-06 9.5880321e-07)
(0.0021658752 5.0086511e-06 9.3323015e-07)
(0.0021574688 4.9417441e-06 9.0857392e-07)
(0.0021492375 4.8761993e-06 8.8479136e-07)
(0.0021411756 4.8119681e-06 8.6183889e-07)
(0.0021332776 4.748999e-06 8.3967907e-07)
(0.0021255383 4.6872387e-06 8.1827043e-07)
(0.0021179527 4.6266214e-06 7.9757748e-07)
(0.0021105161 4.5670666e-06 7.7756146e-07)
(0.0021032242 4.508481e-06 7.581847e-07)
(0.0020960727 4.4507561e-06 7.3941248e-07)
(0.0020890577 4.3937751e-06 7.2120377e-07)
(0.0020821756 4.3374544e-06 7.0352141e-07)
(0.002075423 4.2818116e-06 6.863215e-07)
(0.0020687967 4.2271331e-06 6.6956174e-07)
(0.0020622937 4.1743547e-06 6.5320323e-07)
(0.002055911 4.1258145e-06 6.3726188e-07)
(0.0020496453 4.0868304e-06 6.2198583e-07)
(0.0020434926 4.0687786e-06 6.0874691e-07)
(0.0020374483 4.0948791e-06 6.0452129e-07)
(0.0020315149 4.2094267e-06 6.3987835e-07)
(0.0020256647 4.4797503e-06 7.168849e-07)
(0.0020144539 4.9057764e-06 2.2695256e-06)
(0.0094902877 9.6726608e-05 0.00022289229)
(0.00917661 0.00016632333 0.00026788105)
(0.0087449456 0.00019969046 0.00025550648)
(0.0082664657 0.00021101604 0.00023762681)
(0.00781215 0.0002109939 0.0002181603)
(0.0073950862 0.0002028236 0.00019646328)
(0.0070087986 0.00018827265 0.00017418493)
(0.006648835 0.00016968865 0.0001528463)
(0.0063142174 0.00014929331 0.00013312182)
(0.0060045996 0.00012875288 0.0001152379)
(0.0057192201 0.00010923292 9.9256791e-05)
(0.0054570682 9.1490071e-05 8.514891e-05)
(0.0052170782 7.59234e-05 7.2816211e-05)
(0.0049981259 6.264333e-05 6.2119133e-05)
(0.0047989841 5.1561152e-05 5.2900046e-05)
(0.0046183234 4.2472278e-05 4.4997976e-05)
(0.0044547458 3.5118725e-05 3.8256897e-05)
(0.0043068267 2.9230543e-05 3.2530442e-05)
(0.0041731526 2.4550833e-05 2.7684339e-05)
(0.0040523509 2.0849112e-05 2.3597361e-05)
(0.0039431142 1.7926912e-05 2.0161345e-05)
(0.0038442168 1.5618599e-05 1.7280682e-05)
(0.0037545253 1.3789365e-05 1.4871531e-05)
(0.0036730042 1.2331759e-05 1.2860862e-05)
(0.0035987172 1.1161539e-05 1.1185211e-05)
(0.0035308246 1.0213367e-05 9.7889738e-06)
(0.0034685786 9.4380817e-06 8.6250713e-06)
(0.0034113173 8.7971293e-06 7.6543155e-06)
(0.0033584589 8.2627226e-06 6.8439404e-06)
(0.0033094933 7.8140826e-06 6.1664549e-06)
(0.0032639753 7.4348244e-06 5.5988456e-06)
(0.0032215172 7.1121312e-06 5.1219266e-06)
(0.0031817817 6.8360974e-06 4.7197274e-06)
(0.0031444758 6.5990211e-06 4.378973e-06)
(0.0031093448 6.39478e-06 4.0886804e-06)
(0.0030761678 6.2184039e-06 3.8397975e-06)
(0.0030447526 6.0657948e-06 3.6248774e-06)
(0.003014932 5.933527e-06 3.4378178e-06)
(0.0029865602 5.8186966e-06 3.2736183e-06)
(0.0029595097 5.7188172e-06 3.1282042e-06)
(0.002933669 5.6317487e-06 2.9982612e-06)
(0.0029089401 5.5556264e-06 2.8810974e-06)
(0.0028852364 5.4888242e-06 2.7745344e-06)
(0.0028624815 5.4299133e-06 2.67681e-06)
(0.0028406075 5.3776436e-06 2.5865055e-06)
(0.0028195538 5.3309227e-06 2.5024714e-06)
(0.0027992664 5.2888095e-06 2.4237889e-06)
(0.0027796963 5.2504829e-06 2.3497105e-06)
(0.0027607998 5.215242e-06 2.2796368e-06)
(0.002742537 5.1824975e-06 2.2130835e-06)
(0.0027248717 5.1517649e-06 2.1496547e-06)
(0.0027077708 5.122667e-06 2.0890231e-06)
(0.002691204 5.0948941e-06 2.0309201e-06)
(0.0026751435 5.0680848e-06 1.9751364e-06)
(0.0026595636 5.041064e-06 1.9215393e-06)
(0.0026444411 5.0142593e-06 1.8699673e-06)
(0.002629754 4.9880183e-06 1.8202521e-06)
(0.0026154815 4.9620715e-06 1.7722782e-06)
(0.0026016045 4.9361413e-06 1.7259606e-06)
(0.0025881054 4.9100861e-06 1.6812143e-06)
(0.0025749674 4.8838329e-06 1.6379654e-06)
(0.002562175 4.8573385e-06 1.5961456e-06)
(0.0025497136 4.8305802e-06 1.5556924e-06)
(0.0025375693 4.803539e-06 1.5165476e-06)
(0.0025257292 4.7761755e-06 1.478661e-06)
(0.002514181 4.7483823e-06 1.441986e-06)
(0.0025029134 4.7202752e-06 1.4064829e-06)
(0.0024919153 4.6919148e-06 1.3721025e-06)
(0.0024811765 4.6632906e-06 1.3387983e-06)
(0.002470687 4.6344023e-06 1.3065295e-06)
(0.0024604377 4.6052679e-06 1.2752614e-06)
(0.0024504197 4.5759096e-06 1.2449543e-06)
(0.0024406247 4.5463469e-06 1.2155763e-06)
(0.0024310448 4.5166015e-06 1.187093e-06)
(0.0024216723 4.4866966e-06 1.1594726e-06)
(0.0024125001 4.4566522e-06 1.1326833e-06)
(0.0024035213 4.4264898e-06 1.1066973e-06)
(0.0023947295 4.39623e-06 1.0814824e-06)
(0.0023861184 4.3658905e-06 1.0570133e-06)
(0.0023776821 4.3354877e-06 1.0332604e-06)
(0.0023694149 4.3050341e-06 1.010196e-06)
(0.0023613115 4.2745371e-06 9.8779445e-07)
(0.0023533667 4.2439948e-06 9.6603044e-07)
(0.0023455757 4.2133958e-06 9.4487327e-07)
(0.0023379338 4.18272e-06 9.2429917e-07)
(0.0023304365 4.1519255e-06 9.0427676e-07)
(0.0023230798 4.1209536e-06 8.8477237e-07)
(0.0023158597 4.0897263e-06 8.6575199e-07)
(0.0023087726 4.0581569e-06 8.4717378e-07)
(0.002301815 4.0261925e-06 8.2898108e-07)
(0.0022949838 3.9938778e-06 8.1110707e-07)
(0.0022882766 3.9615318e-06 7.9346346e-07)
(0.002281691 3.9300799e-06 7.7594339e-07)
(0.0022752261 3.9016928e-06 7.5847956e-07)
(0.002268882 3.8809408e-06 7.4124742e-07)
(0.0022626608 3.8766491e-06 7.2572679e-07)
(0.0022565686 3.9043062e-06 7.1957977e-07)
(0.0022506189 3.9866555e-06 7.5579932e-07)
(0.0022447715 4.1391009e-06 8.4931672e-07)
(0.002233564 4.283225e-06 2.412211e-06)
(0.0094843561 6.6886586e-05 0.00022303624)
(0.0091549219 0.00011904886 0.00026838771)
(0.0087072816 0.00014772497 0.00025588053)
(0.0082191888 0.00015892952 0.00023765677)
(0.0077602858 0.00016026049 0.00021787143)
(0.0073412804 0.00015505102 0.00019586613)
(0.0069552494 0.00014481701 0.00017327438)
(0.0065978366 0.00013121474 0.00015165024)
(0.0062677954 0.00011592881 0.00013169211)
(0.0059642872 0.00010028521 0.0001136244)
(0.0056860598 8.5214432e-05 9.7497522e-05)
(0.0054316726 7.1330406e-05 8.3272195e-05)
(0.0051997008 5.8984298e-05 7.0844884e-05)
(0.0049887459 4.8311753e-05 6.0073373e-05)
(0.0047973943 3.9291581e-05 5.0798891e-05)
(0.0046242055 3.1804354e-05 4.2859903e-05)
(0.0044677269 2.5679086e-05 3.6099807e-05)
(0.0043265179 2.0725786e-05 3.0371291e-05)
(0.0041991724 1.6756343e-05 2.5538702e-05)
(0.004084339 1.3596838e-05 2.1479082e-05)
(0.0039807371 1.1093754e-05 1.8082323e-05)
(0.0038871692 9.1161619e-06 1.525079e-05)
(0.0038025288 7.5553795e-06 1.2898647e-05)
(0.003725804 6.3231346e-06 1.0950987e-05)
(0.0036560786 5.3488196e-06 9.3426777e-06)
(0.0035925304 4.5751822e-06 8.0166136e-06)
(0.0035344253 3.9620991e-06 6.9239482e-06)
(0.0034811131 3.472628e-06 6.0250732e-06)
(0.0034320221 3.0815218e-06 5.2862635e-06)
(0.0033866501 2.7702769e-06 4.6792101e-06)
(0.0033445586 2.5236735e-06 4.180521e-06)
(0.0033053662 2.329587e-06 3.7707528e-06)
(0.0032687419 2.1784987e-06 3.4337455e-06)
(0.0032343982 2.0629057e-06 3.156111e-06)
(0.0032020863 1.9768084e-06 2.9267967e-06)
(0.0031715907 1.9153158e-06 2.7367033e-06)
(0.0031427248 1.874378e-06 2.5783552e-06)
(0.0031153267 1.8506044e-06 2.445629e-06)
(0.0030892563 1.8411245e-06 2.3335233e-06)
(0.0030643915 1.8434982e-06 2.2379672e-06)
(0.003040626 1.8556448e-06 2.1556635e-06)
(0.0030178671 1.8757811e-06 2.0839521e-06)
(0.0029960335 1.9023807e-06 2.0206936e-06)
(0.0029750538 1.9341339e-06 1.9641818e-06)
(0.0029548648 1.9699146e-06 1.9130519e-06)
(0.0029354109 2.0087614e-06 1.8662269e-06)
(0.0029166424 2.0498588e-06 1.8228524e-06)
(0.0028985148 2.0925094e-06 1.7822568e-06)
(0.0028809886 2.1361372e-06 1.7439139e-06)
(0.0028640277 2.1802695e-06 1.7074096e-06)
(0.0028475999 2.22455e-06 1.6724148e-06)
(0.0028316758 2.2687592e-06 1.6386551e-06)
(0.0028162284 2.3128921e-06 1.6058713e-06)
(0.0028012324 2.3570773e-06 1.573822e-06)
(0.0027866658 2.3978705e-06 1.5431886e-06)
(0.0027725089 2.4362346e-06 1.5136868e-06)
(0.0027587418 2.4734394e-06 1.4848883e-06)
(0.002745346 2.5095326e-06 1.4567004e-06)
(0.002732305 2.5443495e-06 1.4291163e-06)
(0.0027196032 2.5777714e-06 1.4021115e-06)
(0.0027072261 2.6097248e-06 1.3756639e-06)
(0.0026951602 2.6401663e-06 1.349756e-06)
(0.0026833928 2.6690892e-06 1.3243752e-06)
(0.0026719116 2.6965041e-06 1.2995096e-06)
(0.0026607054 2.7223727e-06 1.2751525e-06)
(0.0026497635 2.7463548e-06 1.2513138e-06)
(0.002639076 2.7689086e-06 1.2279778e-06)
(0.0026286333 2.7901471e-06 1.205129e-06)
(0.0026184262 2.8099943e-06 1.182762e-06)
(0.0026084461 2.8284327e-06 1.1608708e-06)
(0.0025986849 2.8454943e-06 1.139449e-06)
(0.0025891348 2.8612194e-06 1.1184905e-06)
(0.0025797885 2.8756499e-06 1.0979863e-06)
(0.002570639 2.8888307e-06 1.0779294e-06)
(0.0025616795 2.9008058e-06 1.0583088e-06)
(0.0025529038 2.9116203e-06 1.039119e-06)
(0.0025443058 2.9213148e-06 1.0203482e-06)
(0.0025358796 2.9299303e-06 1.0019886e-06)
(0.0025276198 2.9375073e-06 9.8403146e-07)
(0.002519521 2.9440804e-06 9.6646569e-07)
(0.0025115783 2.9496811e-06 9.4927871e-07)
(0.0025037869 2.9543383e-06 9.3246058e-07)
(0.0024961421 2.95807e-06 9.1599962e-07)
(0.0024886396 2.9608815e-06 8.9988008e-07)
(0.0024812752 2.9627728e-06 8.8408521e-07)
(0.002474045 2.9637215e-06 8.6859373e-07)
(0.0024669452 2.9636889e-06 8.5338224e-07)
(0.0024599723 2.9626135e-06 8.3841374e-07)
(0.0024531231 2.9604313e-06 8.2364292e-07)
(0.0024463945 2.9570977e-06 8.0900276e-07)
(0.0024397839 2.9526519e-06 7.9439803e-07)
(0.0024332894 2.947353e-06 7.7969401e-07)
(0.0024269099 2.9419148e-06 7.6470911e-07)
(0.0024206457 2.9379225e-06 7.492597e-07)
(0.0024144993 2.9384199e-06 7.3336538e-07)
(0.0024084767 2.9484969e-06 7.1826468e-07)
(0.0024025877 2.9751253e-06 7.1113328e-07)
(0.002396846 3.0234617e-06 7.4331306e-07)
(0.0023911945 3.0808306e-06 8.3046577e-07)
(0.0023803644 3.0574258e-06 2.2999429e-06)
(0.0094810492 4.4090135e-05 0.00022308885)
(0.0091422796 7.9975482e-05 0.00026874495)
(0.0086839084 0.00010160921 0.00025628771)
(0.0081880903 0.00011101591 0.00023793456)
(0.0077246858 0.00011275118 0.00021798622)
(0.0073029895 0.00010953687 0.00019578738)
(0.0069155191 0.00010266029 0.00017296032)
(0.0065579578 9.3267237e-05 0.0001510852)
(0.006229001 8.2539593e-05 0.00013089045)
(0.005927585 7.1446832e-05 0.00011261412)
(0.0056522063 6.0673359e-05 9.6309239e-05)
(0.0054012005 5.0670806e-05 8.1936268e-05)
(0.0051729477 4.1706609e-05 6.9390832e-05)
(0.004965887 3.3898115e-05 5.8529097e-05)
(0.0047784814 2.7249952e-05 4.9189878e-05)
(0.0046092054 2.1693073e-05 4.1208773e-05)
(0.0044565535 1.7117437e-05 3.4426144e-05)
(0.0043190553 1.339552e-05 2.8691658e-05)
(0.0041952917 1.0397811e-05 2.3866804e-05)
(0.0040839086 8.002331e-06 1.9826011e-05)
(0.0039836292 6.0997705e-06 1.645686e-05)
(0.0038932634 4.5956611e-06 1.3659715e-05)
(0.0038117126 3.4106721e-06 1.1347012e-05)
(0.0037379734 2.479929e-06 9.4422918e-06)
(0.0036711359 1.7515121e-06 7.8790898e-06)
(0.0036103859 1.1749066e-06 6.6010328e-06)
(0.0035549935 7.2234119e-07 5.5561205e-06)
(0.0035043108 3.7342626e-07 4.7060697e-06)
(0.0034577717 1.0569766e-07 4.0163442e-06)
(0.0034148763 -9.9088957e-08 3.457414e-06)
(0.0033751872 -2.5333649e-07 3.0054954e-06)
(0.0033383243 -3.6639954e-07 2.6409747e-06)
(0.0033039576 -4.4577774e-07 2.3475736e-06)
(0.0032718009 -4.9748257e-07 2.1118273e-06)
(0.0032416065 -5.2634685e-07 1.9226415e-06)
(0.0032131599 -5.3631055e-07 1.7709152e-06)
(0.0031862758 -5.3064142e-07 1.6492036e-06)
(0.0031607936 -5.1206378e-07 1.5514419e-06)
(0.0031365743 -4.8287275e-07 1.4727104e-06)
(0.0031134976 -4.4500687e-07 1.4090329e-06)
(0.0030914586 -4.0011157e-07 1.3572046e-06)
(0.0030703663 -3.4957905e-07 1.3146563e-06)
(0.0030501409 -2.945955e-07 1.2793307e-06)
(0.0030307129 -2.3616989e-07 1.2495912e-06)
(0.0030120207 -1.7516562e-07 1.2241407e-06)
(0.0029940105 -1.1232232e-07 1.2019532e-06)
(0.0029766343 -4.826912e-08 1.1822231e-06)
(0.0029598495 1.6448484e-08 1.1643216e-06)
(0.0029436181 8.1355652e-08 1.1477521e-06)
(0.002927906 1.4602341e-07 1.1321238e-06)
(0.0029126825 2.1005727e-07 1.1171189e-06)
(0.0028979201 2.7304811e-07 1.1024387e-06)
(0.0028835935 3.345405e-07 1.0876604e-06)
(0.0028696773 3.9432155e-07 1.0722018e-06)
(0.0028561514 4.5704883e-07 1.059009e-06)
(0.0028429997 5.2060049e-07 1.0472573e-06)
(0.0028302035 5.8225249e-07 1.0356084e-06)
(0.0028177449 6.4163711e-07 1.0238009e-06)
(0.0028056084 6.9901733e-07 1.0118745e-06)
(0.0027937799 7.5455925e-07 9.9986927e-07)
(0.0027822461 8.0835011e-07 9.8781068e-07)
(0.0027709946 8.604694e-07 9.7571881e-07)
(0.0027600137 9.1102749e-07 9.6360379e-07)
(0.0027492926 9.6019644e-07 9.5144763e-07)
(0.0027388207 1.0080061e-06 9.3926668e-07)
(0.0027285887 1.052851e-06 9.274654e-07)
(0.0027185878 1.0958669e-06 9.1582898e-07)
(0.0027088089 1.1375005e-06 9.0425324e-07)
(0.0026992438 1.1777673e-06 8.9275991e-07)
(0.0026898847 1.216658e-06 8.8136582e-07)
(0.0026807244 1.2541713e-06 8.700802e-07)
(0.0026717559 1.2903157e-06 8.5890706e-07)
(0.0026629726 1.3251088e-06 8.4785308e-07)
(0.0026543682 1.3585746e-06 8.3692267e-07)
(0.0026459367 1.390741e-06 8.2612219e-07)
(0.0026376723 1.421637e-06 8.1545408e-07)
(0.0026295698 1.4512903e-06 8.0491989e-07)
(0.0026216238 1.4797323e-06 7.9452299e-07)
(0.0026138294 1.5069921e-06 7.8426385e-07)
(0.002606182 1.5330936e-06 7.7413994e-07)
(0.0025986769 1.5580634e-06 7.6415204e-07)
(0.0025913099 1.5819223e-06 7.542949e-07)
(0.0025840769 1.6046821e-06 7.4456464e-07)
(0.0025769739 1.6263498e-06 7.349523e-07)
(0.0025699972 1.6469225e-06 7.2544862e-07)