/*--------------------------------*- C++ -*----------------------------------*\
  =========                 |
  \\      /  F ield         | OpenFOAM: The Open Source CFD Toolbox
   \\    /   O peration     | Website:  https://openfoam.org
    \\  /    A nd           | Version:  7
     \\/     M anipulation  |
\*---------------------------------------------------------------------------*/
FoamFile
{
    version     2.0;
    format      ascii;
    class       surfaceScalarField;
    location    "2200/water";
    object      phi;
}
// * * * * * * * * * * * * * * * * * * * * * * * * * * * * * * * * * * * * * //

dimensions      [1 0 -1 0 0 0 0];

internalField   nonuniform List<scalar> 
156660
(
9.905724e-05
6.0010402e-06
6.0528092e-06
8.6847498e-05
6.0555113e-06
6.1542307e-06
7.5687891e-05
5.5111362e-06
5.6484701e-06
6.5441704e-05
5.0404181e-06
5.2057689e-06
5.6267661e-05
4.4956436e-06
4.6783991e-06
4.8318019e-05
3.8797648e-06
4.0698777e-06
4.1624776e-05
3.2524448e-06
3.4407982e-06
3.6124897e-05
2.660462e-06
2.839417e-06
3.1692235e-05
2.1345126e-06
2.2981489e-06
2.8162841e-05
1.6926975e-06
1.8366964e-06
2.5361437e-05
1.3399933e-06
1.4614113e-06
2.3124664e-05
1.0698477e-06
1.1669256e-06
2.1315127e-05
8.6875418e-07
9.4078224e-07
1.9825714e-05
7.2110065e-07
7.6831271e-07
1.8577278e-05
6.1248246e-07
6.3595305e-07
1.7513255e-05
5.3125221e-07
5.327715e-07
1.6593744e-05
4.6879724e-07
4.5071347e-07
1.5790433e-05
4.1913716e-07
3.8417389e-07
1.5082784e-05
3.7829069e-07
3.2935848e-07
1.4455417e-05
3.436713e-07
2.8369562e-07
1.3896409e-05
3.1361406e-07
2.4539335e-07
1.339622e-05
2.8704449e-07
2.1314453e-07
1.2947015e-05
2.6326031e-07
1.8594509e-07
1.2542237e-05
2.4179364e-07
1.6298461e-07
1.2176318e-05
2.2232207e-07
1.4359691e-07
1.1844484e-05
2.046148e-07
1.2721881e-07
1.1542609e-05
1.8849494e-07
1.1337973e-07
1.1267116e-05
1.7381577e-07
1.0167793e-07
1.1014892e-05
1.6046272e-07
9.1760842e-08
1.0783252e-05
1.4833968e-07
8.3300601e-08
1.0569851e-05
1.3734903e-07
7.6052147e-08
1.0372614e-05
1.2738862e-07
6.9848331e-08
1.0189731e-05
1.1836805e-07
6.4514833e-08
1.001963e-05
1.1020448e-07
5.9896634e-08
9.8609388e-06
1.028192e-07
5.5871674e-08
9.7124595e-06
9.6137952e-08
5.2341373e-08
9.5731439e-06
9.0091177e-08
4.9224364e-08
9.4420759e-06
8.4614478e-08
4.6453559e-08
9.3184531e-06
7.9648644e-08
4.3974135e-08
9.2015723e-06
7.5139719e-08
4.1741059e-08
9.0908166e-06
7.1038128e-08
3.9717542e-08
8.9856431e-06
6.730115e-08
3.7872317e-08
8.8855707e-06
6.3894245e-08
3.6178156e-08
8.7901757e-06
6.0780085e-08
3.4614941e-08
8.6990829e-06
5.792615e-08
3.3166664e-08
8.611959e-06
5.5303718e-08
3.1820127e-08
8.5285072e-06
5.288743e-08
3.056439e-08
8.4484618e-06
5.06551e-08
2.9390288e-08
8.3715848e-06
4.8587049e-08
2.8290034e-08
8.2976614e-06
4.6666169e-08
2.7257187e-08
8.2264975e-06
4.4877472e-08
2.6286381e-08
8.1579202e-06
4.3208788e-08
2.5368515e-08
8.0917731e-06
4.1649015e-08
2.4498048e-08
8.0279107e-06
4.0186964e-08
2.3675364e-08
7.9662005e-06
3.8812686e-08
2.2897525e-08
7.9065219e-06
3.7518399e-08
2.2160233e-08
7.8487639e-06
3.6297856e-08
2.146018e-08
7.7928241e-06
3.5145125e-08
2.0794597e-08
7.7386083e-06
3.4054689e-08
2.0161157e-08
7.6860293e-06
3.302137e-08
1.9557694e-08
7.6350062e-06
3.2040774e-08
1.8982294e-08
7.5854641e-06
3.1109056e-08
1.8433086e-08
7.537333e-06
3.0222592e-08
1.7908507e-08
7.4905477e-06
2.9378241e-08
1.7407013e-08
7.4450475e-06
2.8572994e-08
1.6927211e-08
7.4007755e-06
2.7804244e-08
1.6467777e-08
7.3576783e-06
2.706958e-08
1.6027647e-08
7.3157056e-06
2.6367061e-08
1.5605616e-08
7.2748103e-06
2.5694661e-08
1.5200664e-08
7.2349479e-06
2.5050559e-08
1.481182e-08
7.1960766e-06
2.443309e-08
1.4438183e-08
7.158157e-06
2.3840692e-08
1.4078918e-08
7.1211518e-06
2.3271931e-08
1.3733261e-08
7.0850257e-06
2.2725518e-08
1.3400528e-08
7.0497456e-06
2.2200202e-08
1.3079946e-08
7.0152798e-06
2.1694911e-08
1.2770877e-08
6.9815984e-06
2.1208566e-08
1.2472748e-08
6.9486733e-06
2.0740227e-08
1.2184907e-08
6.9164775e-06
2.028895e-08
1.1906794e-08
6.8849857e-06
1.985396e-08
1.1637834e-08
6.8541739e-06
1.9434383e-08
1.1377467e-08
6.8240193e-06
1.9029443e-08
1.1125151e-08
6.7945006e-06
1.8638446e-08
1.0880247e-08
6.7655975e-06
1.826076e-08
1.0642303e-08
6.7372912e-06
1.7895583e-08
1.0410769e-08
6.709564e-06
1.7542103e-08
1.0185096e-08
6.6823995e-06
1.7199613e-08
9.9648769e-09
6.6557824e-06
1.6867264e-08
9.7498163e-09
6.6296983e-06
1.6544109e-08
9.5399755e-09
6.604133e-06
1.6229242e-08
9.335969e-09
6.5790714e-06
1.592201e-08
9.1396745e-09
6.5544939e-06
1.5622326e-08
8.9551073e-09
6.5303708e-06
1.5332527e-08
8.79064e-09
6.5066467e-06
1.5060443e-08
8.6636088e-09
6.4832093e-06
1.4827802e-08
8.6095008e-09
6.4598102e-06
1.4693079e-08
8.7060368e-09
6.4358387e-06
1.4826404e-08
9.1451738e-09
6.4096302e-06
1.5741734e-08
1.0466727e-08
6.3782854e-06
1.8026541e-08
1.3318193e-08
3.2300198e-08
2.7923527e-08
0.00010646494
4.1872385e-06
6.4599816e-06
0.0001002019
5.695418e-06
6.6231353e-06
9.3659588e-05
5.7790389e-06
6.2744098e-06
8.7011589e-05
5.6514782e-06
6.0369387e-06
8.0422927e-05
5.3669119e-06
5.7173941e-06
7.4094022e-05
4.9022832e-06
5.3063862e-06
6.8167026e-05
4.3278135e-06
4.8516273e-06
6.2722565e-05
3.717891e-06
4.387032e-06
5.7799049e-05
3.1243144e-06
3.9337145e-06
5.3403345e-05
2.5820689e-06
3.5063329e-06
4.9517402e-05
2.1121062e-06
3.1138299e-06
4.6105482e-05
1.7220197e-06
2.7597473e-06
4.3121558e-05
1.4089355e-06
2.4437429e-06
4.0515558e-05
1.1637552e-06
2.163346e-06
3.8237948e-05
9.7485848e-07
1.9152336e-06
3.6242683e-05
8.3055975e-07
1.6959573e-06
3.4488759e-05
7.2043697e-07
1.5022849e-06
3.2940716e-05
6.3586294e-07
1.3313172e-06
3.1568463e-05
5.7005006e-07
1.1804931e-06
3.0346733e-05
5.1784897e-07
1.0475522e-06
2.9254398e-05
4.7545957e-07
9.3049035e-07
2.8273782e-05
4.401396e-07
8.2752026e-07
2.7390054e-05
4.0994893e-07
7.3704011e-07
2.6590699e-05
3.8353954e-07
6.5760857e-07
2.5865102e-05
3.5998888e-07
5.8793074e-07
2.5204198e-05
3.3867631e-07
5.2684263e-07
2.4600205e-05
3.1918359e-07
4.7330346e-07
2.4046429e-05
3.0120192e-07
4.2639014e-07
2.3537073e-05
2.8455206e-07
3.8526713e-07
2.3067119e-05
2.6911099e-07
3.4918238e-07
2.2632208e-05
2.5478166e-07
3.1747784e-07
2.2228528e-05
2.414738e-07
2.8959531e-07
2.1852744e-05
2.2911071e-07
2.6504125e-07
2.1501947e-05
2.1762895e-07
2.4337257e-07
2.1173591e-05
2.069695e-07
2.2420574e-07
2.0865444e-05
1.9707565e-07
2.0720868e-07
2.0575549e-05
1.8789253e-07
1.9209399e-07
2.0302183e-05
1.7936723e-07
1.7861343e-07
2.0043829e-05
1.7144909e-07
1.6655323e-07
1.979915e-05
1.640898e-07
1.5572942e-07
1.956696e-05
1.5724382e-07
1.4598402e-07
1.934621e-05
1.5086892e-07
1.371822e-07
1.9135969e-05
1.4492647e-07
1.2920881e-07
1.8935407e-05
1.3937902e-07
1.2196308e-07
1.8743783e-05
1.3419228e-07
1.1535761e-07
1.8560435e-05
1.2933507e-07
1.0931725e-07
1.8384766e-05
1.2477905e-07
1.0377716e-07
1.8216241e-05
1.204985e-07
9.8681278e-08
1.8054377e-05
1.1647011e-07
9.3981302e-08
1.7898734e-05
1.1267291e-07
8.9635433e-08
1.7748917e-05
1.0908821e-07
8.5606976e-08
1.7604563e-05
1.0570003e-07
8.186243e-08
1.7465345e-05
1.0249339e-07
7.8373299e-08
1.7330962e-05
9.9452991e-08
7.511699e-08
1.7201138e-05
9.6564386e-08
7.207273e-08
1.7075619e-05
9.3816643e-08
6.9221175e-08
1.695417e-05
9.12011e-08
6.6545104e-08
1.6836577e-05
8.870909e-08
6.4029552e-08
1.6722638e-05
8.633194e-08
6.1661012e-08
1.661217e-05
8.4061741e-08
5.9427677e-08
1.6505001e-05
8.1891525e-08
5.731885e-08
1.640097e-05
7.9814931e-08
5.5324848e-08
1.6299929e-05
7.7826145e-08
5.3437131e-08
1.620174e-05
7.5919863e-08
5.164792e-08
1.6106272e-05
7.4091016e-08
4.9950133e-08
1.6013404e-05
7.2334974e-08
4.8337379e-08
1.5923022e-05
7.0647709e-08
4.680387e-08
1.5835019e-05
6.9025724e-08
4.5344268e-08
1.5749294e-05
6.7465548e-08
4.3953705e-08
1.5665753e-05
6.5963768e-08
4.2627674e-08
1.5584307e-05
6.4517367e-08
4.1362181e-08
1.5504871e-05
6.3123444e-08
4.0153342e-08
1.5427365e-05
6.1779317e-08
3.8997789e-08
1.5351716e-05
6.0482551e-08
3.7892287e-08
1.5277852e-05
5.923083e-08
3.6833813e-08
1.5205705e-05
5.8021983e-08
3.5819746e-08
1.5135212e-05
5.6854003e-08
3.4847339e-08
1.5066313e-05
5.5724959e-08
3.3914339e-08
1.499895e-05
5.4633132e-08
3.3018417e-08
1.493307e-05
5.357673e-08
3.2157464e-08
1.4868621e-05
5.2554228e-08
3.1329426e-08
1.4805554e-05
5.1563954e-08
3.0532449e-08
1.4743823e-05
5.0604463e-08
2.9764676e-08
1.4683385e-05
4.9674298e-08
2.9024378e-08
1.4624199e-05
4.8771815e-08
2.8309883e-08
1.4566226e-05
4.7895439e-08
2.7619567e-08
1.4509431e-05
4.7043478e-08
2.6951967e-08
1.4453778e-05
4.6214096e-08
2.6305774e-08
1.4399237e-05
4.5405409e-08
2.5679901e-08
1.4345777e-05
4.4615728e-08
2.5073742e-08
1.4293367e-05
4.3844255e-08
2.44877e-08
1.4241972e-05
4.309289e-08
2.3923742e-08
1.4191548e-05
4.2369945e-08
2.3387125e-08
1.4142019e-05
4.1699338e-08
2.2889638e-08
1.4093249e-05
4.1141625e-08
2.2456637e-08
1.4044951e-05
4.0844622e-08
2.2146573e-08
1.3996485e-05
4.1169174e-08
2.2123059e-08
1.3946229e-05
4.3012304e-08
2.2985407e-08
1.389015e-05
4.8540239e-08
2.5565817e-08
6.3281556e-08
5.0000834e-08
0.00010603565
2.7876425e-06
6.4750379e-06
0.00010074799
4.4145412e-06
6.5685292e-06
9.5493515e-05
4.8594027e-06
6.1741158e-06
9.0256432e-05
4.930369e-06
5.9581921e-06
8.5101366e-05
4.8311767e-06
5.6908012e-06
8.0102875e-05
4.5561761e-06
5.3445981e-06
7.5322251e-05
4.146952e-06
4.9614853e-06
7.0803266e-05
3.6678925e-06
4.5689837e-06
6.6576264e-05
3.1701903e-06
4.1811255e-06
6.2660725e-05
2.6900109e-06
3.8075976e-06
5.9065443e-05
2.2519319e-06
3.4554566e-06
5.5788936e-05
1.8697304e-06
3.1287957e-06
5.2820978e-05
1.5477473e-06
2.8291458e-06
5.014479e-05
1.2836302e-06
2.5563139e-06
4.7739304e-05
1.07123e-06
2.3091141e-06
4.5581183e-05
9.0281505e-07
2.0858661e-06
4.3646423e-05
7.7048779e-07
1.884709e-06
4.1911533e-05
6.6697377e-07
1.7037793e-06
4.0354306e-05
5.8598199e-07
1.5412951e-06
3.8954268e-05
5.2230223e-07
1.3955849e-06
3.769288e-05
4.7175605e-07
1.265091e-06
3.6553576e-05
4.3107984e-07
1.1483634e-06
3.552169e-05
3.9778206e-07
1.0440533e-06
3.4584322e-05
3.6999884e-07
9.5090831e-07
3.3730181e-05
3.4635984e-07
8.677702e-07
3.2949411e-05
3.2587761e-07
7.9356872e-07
3.223342e-05
3.0784047e-07
7.2733483e-07
3.1574711e-05
2.9172984e-07
6.6818102e-07
3.0966769e-05
2.7719265e-07
6.1530125e-07
3.0403928e-05
2.6398097e-07
5.6797019e-07
2.9881258e-05
2.5190844e-07
5.2554314e-07
2.9394455e-05
2.4082712e-07
4.8745002e-07
2.8939761e-05
2.3062156e-07
4.5318332e-07
2.8513895e-05
2.212015e-07
4.2229384e-07
2.8113985e-05
2.1249195e-07
3.9438675e-07
2.7737518e-05
2.0442798e-07
3.6911492e-07
2.7382285e-05
1.969519e-07
3.4617386e-07
2.7046344e-05
1.9001177e-07
3.2529678e-07
2.6727982e-05
1.8355991e-07
3.0625044e-07
2.6425689e-05
1.7755273e-07
2.8883086e-07
2.6138123e-05
1.7195003e-07
2.7285982e-07
2.5864094e-05
1.6671514e-07
2.5818184e-07
2.5602546e-05
1.6181451e-07
2.4466092e-07
2.535253e-05
1.5721706e-07
2.3217767e-07
2.51132e-05
1.5289441e-07
2.2062724e-07
2.4883797e-05
1.4882096e-07
2.0991771e-07
2.4663634e-05
1.4497366e-07
1.9996813e-07
2.4452094e-05
1.4133181e-07
1.9070705e-07
2.4248615e-05
1.3787695e-07
1.8207152e-07
2.405269e-05
1.3459268e-07
1.7400573e-07
2.3863854e-05
1.3146461e-07
1.6645989e-07
2.3681684e-05
1.2848057e-07
1.5938926e-07
2.3505794e-05
1.2562919e-07
1.5275415e-07
2.3335829e-05
1.2289869e-07
1.4651971e-07
2.3171462e-05
1.2027635e-07
1.4065462e-07
2.3012394e-05
1.1775475e-07
1.3513025e-07
2.2858345e-05
1.153297e-07
1.2992042e-07
2.2709057e-05
1.1299539e-07
1.2500176e-07
2.2564291e-05
1.1074522e-07
1.2035289e-07
2.2423824e-05
1.0857349e-07
1.1595458e-07
2.2287451e-05
1.0647551e-07
1.1178924e-07
2.2154978e-05
1.0444701e-07
1.0784082e-07
2.2026226e-05
1.0248418e-07
1.0409459e-07
2.1901025e-05
1.0058351e-07
1.0053716e-07
2.1779218e-05
9.8741553e-08
9.7156179e-08
2.1660658e-05
9.6954899e-08
9.3940276e-08
2.1545205e-05
9.5221292e-08
9.0879058e-08
2.1432729e-05
9.353881e-08
8.7962817e-08
2.1323107e-05
9.1905296e-08
8.518259e-08
2.1216222e-05
9.0318513e-08
8.2530187e-08
2.1111965e-05
8.877642e-08
7.9997873e-08
2.1010233e-05
8.727717e-08
7.7578633e-08
2.0910927e-05
8.5818969e-08
7.5265869e-08
2.0813956e-05
8.4400312e-08
7.3053429e-08
2.0719232e-05
8.3019695e-08
7.0935648e-08
2.0626671e-05
8.167562e-08
6.8907215e-08
2.0536195e-05
8.0366811e-08
6.6963126e-08
2.0447729e-05
7.9091978e-08
6.5098761e-08
2.0361203e-05
7.7849816e-08
6.3309778e-08
2.0276548e-05
7.6639239e-08
6.1592063e-08
2.0193702e-05
7.5458998e-08
5.994176e-08
2.0112602e-05
7.4307995e-08
5.8355225e-08
2.0033193e-05
7.3184949e-08
5.6829071e-08
1.9955418e-05
7.2088605e-08
5.5359961e-08
1.9879228e-05
7.1017626e-08
5.3944844e-08
1.9804572e-05
6.9970443e-08
5.2580755e-08
1.9731406e-05
6.894526e-08
5.1264777e-08
1.9659685e-05
6.7940134e-08
4.9994413e-08
1.9589371e-05
6.695303e-08
4.8767054e-08
1.9520423e-05
6.5982366e-08
4.7580519e-08
1.9452806e-05
6.5028046e-08
4.6433071e-08
1.9386481e-05
6.4094135e-08
4.5323737e-08
1.9321404e-05
6.3194681e-08
4.4253063e-08
1.9257511e-05
6.2366345e-08
4.3225222e-08
1.9194705e-05
6.1695157e-08
4.2253155e-08
1.9132798e-05
6.1374058e-08
4.1377422e-08
1.9071394e-05
6.1822393e-08
4.0750683e-08
1.9009424e-05
6.3924719e-08
4.10576e-08
1.8944661e-05
6.9304679e-08
4.3998847e-08
7.9170943e-08
7.4661546e-08
0.0001054937
1.9169871e-06
6.4880406e-06
0.00010005365
3.2729596e-06
6.5816334e-06
9.4926077e-05
3.8288995e-06
6.1580776e-06
8.9946373e-05
3.9838108e-06
5.9262629e-06
8.5163276e-05
3.9595077e-06
5.6547657e-06
8.0619137e-05
3.7899368e-06
5.3103784e-06
7.6329462e-05
3.5015547e-06
4.9350725e-06
7.230016e-05
3.1412013e-06
4.5559928e-06
6.8534206e-05
2.7514802e-06
4.1846641e-06
6.5032983e-05
2.3633493e-06
3.8278852e-06
6.1795789e-05
1.9984143e-06
3.490711e-06
5.8818843e-05
1.6703759e-06
3.176301e-06
5.6094717e-05
1.3858295e-06
2.886043e-06
5.3612488e-05
1.1457945e-06
2.6200649e-06
5.1358373e-05
9.4764118e-07
2.3777043e-06
4.9316593e-05
7.8676783e-07
2.1578272e-06
4.7470246e-05
6.5779548e-07
1.9590391e-06
4.5802069e-05
5.553254e-07
1.7798252e-06
4.4295042e-05
4.7437115e-07
1.6186378e-06
4.293283e-05
4.1056666e-07
1.473948e-06
4.1700078e-05
3.6023234e-07
1.3442759e-06
4.0582591e-05
3.2035741e-07
1.2282094e-06
3.956742e-05
2.8853732e-07
1.1244154e-06
3.8642881e-05
2.6289064e-07
1.0316467e-06
3.7798527e-05
2.4196983e-07
9.48744e-07
3.7025076e-05
2.2467706e-07
8.7465172e-07
3.6314324e-05
2.10189e-07
8.0840412e-07
3.5659057e-05
1.9788603e-07
7.4911042e-07
3.5052961e-05
1.873158e-07
6.959728e-07
3.4490519e-05
1.7814871e-07
6.4827381e-07
3.3966922e-05
1.701317e-07
6.0537439e-07
3.3477973e-05
1.630673e-07
5.6670867e-07
3.3020016e-05
1.56803e-07
5.3177541e-07
3.2589865e-05
1.5122054e-07
5.0013242e-07
3.218474e-05
1.4622559e-07
4.7139139e-07
3.1802215e-05
1.4174072e-07
4.4521233e-07
3.1440168e-05
1.3770095e-07
4.2129812e-07
3.1096739e-05
1.3405094e-07
3.9938921e-07
3.0770297e-05
1.3074294e-07
3.7925954e-07
3.0459402e-05
1.2773516e-07
3.6071194e-07
3.0162787e-05
1.2499091e-07
3.4357479e-07
2.9879325e-05
1.2247783e-07
3.2769851e-07
2.960802e-05
1.2016734e-07
3.1295272e-07
2.934798e-05
1.1803381e-07
2.9922354e-07
2.9098408e-05
1.1605462e-07
2.8641137e-07
2.885859e-05
1.1420981e-07
2.7442904e-07
2.8627882e-05
1.1248191e-07
2.6319998e-07
2.8405701e-05
1.1085559e-07
2.5265688e-07
2.819152e-05
1.0931757e-07
2.4274022e-07
2.7984859e-05
1.0785645e-07
2.3339755e-07
2.7785279e-05
1.0646276e-07
2.2458208e-07
2.7592378e-05
1.0512871e-07
2.1625213e-07
2.740579e-05
1.0384734e-07
2.0837034e-07
2.7225174e-05
1.0261116e-07
2.009036e-07
2.705022e-05
1.0140744e-07
1.9382257e-07
2.6880641e-05
1.0023384e-07
1.871004e-07
2.6716166e-05
9.9092358e-08
1.8071225e-07
2.6556546e-05
9.7979985e-08
1.7463558e-07
2.6401548e-05
9.6892531e-08
1.6885015e-07
2.6250957e-05
9.5827107e-08
1.6333742e-07
2.610457e-05
9.4781698e-08
1.5808045e-07
2.5962199e-05
9.3754732e-08
1.5306361e-07
2.5823666e-05
9.2744907e-08
1.4827263e-07
2.5688804e-05
9.1751029e-08
1.4369412e-07
2.5557458e-05
9.0771742e-08
1.3931599e-07
2.5429481e-05
8.9805186e-08
1.3512695e-07
2.5304734e-05
8.8851482e-08
1.3111648e-07
2.5183087e-05
8.7911227e-08
1.2727469e-07
2.5064416e-05
8.6983936e-08
1.2359244e-07
2.4948604e-05
8.60689e-08
1.2006119e-07
2.4835542e-05
8.5165805e-08
1.1667302e-07
2.4725124e-05
8.427434e-08
1.1342045e-07
2.4617252e-05
8.3394287e-08
1.1029656e-07
2.4511832e-05
8.2525477e-08
1.0729478e-07
2.4408775e-05
8.166776e-08
1.04409e-07
2.4307997e-05
8.0820986e-08
1.0163343e-07
2.4209416e-05
7.9984994e-08
9.8962654e-08
2.4112956e-05
7.9159735e-08
9.6391553e-08
2.4018546e-05
7.8345024e-08
9.3915304e-08
2.3926115e-05
7.7540716e-08
9.1529314e-08
2.3835598e-05
7.6746553e-08
8.9229275e-08
2.3746933e-05
7.5962322e-08
8.701105e-08
2.3660059e-05
7.5187643e-08
8.4870725e-08
2.3574922e-05
7.4421996e-08
8.2804545e-08
2.3491466e-05
7.3664631e-08
8.080892e-08
2.3409641e-05
7.2914587e-08
7.8880359e-08
2.33294e-05
7.2170665e-08
7.7015509e-08
2.3250698e-05
7.1431339e-08
7.5211017e-08
2.3173492e-05
7.0694876e-08
7.3463642e-08
2.3097745e-05
6.9960216e-08
7.1770062e-08
2.3023418e-05
6.9227959e-08
7.0127007e-08
2.2950477e-05
6.8503514e-08
6.8531182e-08
2.2878889e-05
6.7802872e-08
6.6979686e-08
2.2808619e-05
6.716506e-08
6.5471549e-08
2.2739625e-05
6.6675237e-08
6.4013351e-08
2.267185e-05
6.6507061e-08
6.2642314e-08
2.2605149e-05
6.6990734e-08
6.1532384e-08
2.2538888e-05
6.8686021e-08
6.1499895e-08
2.2471121e-05
7.2226978e-08
6.484511e-08
7.6722822e-08
9.8461316e-08
0.0001051979
1.3340884e-06
6.4961221e-06
9.9496561e-05
2.3731022e-06
6.6011947e-06
9.4262459e-05
2.9019223e-06
6.1610799e-06
8.9251186e-05
3.0856642e-06
5.9094196e-06
8.4493498e-05
3.0947347e-06
5.6224614e-06
8.0033635e-05
2.9846657e-06
5.2651341e-06
7.5876907e-05
2.7790155e-06
4.8792667e-06
7.2014635e-05
2.5106844e-06
4.4927895e-06
6.8436293e-05
2.2128728e-06
4.1169489e-06
6.5131387e-05
1.9107258e-06
3.7575291e-06
6.208941e-05
1.621732e-06
3.4186596e-06
5.9299432e-05
1.3573877e-06
3.1029661e-06
5.6749589e-05
1.1240344e-06
2.8116387e-06
5.4426788e-05
9.2377947e-07
2.5448158e-06
5.2316754e-05
7.5572797e-07
2.3019465e-06
5.0404313e-05
6.1717853e-07
2.0820302e-06
4.8673788e-05
5.045435e-07
1.8837772e-06
4.7109414e-05
4.1397181e-07
1.7057274e-06
4.5695713e-05
3.4173648e-07
1.5463363e-06
4.4417792e-05
2.8445146e-07
1.4040359e-06
4.3261575e-05
2.3917112e-07
1.2772781e-06
4.2213952e-05
2.03415e-07
1.1645652e-06
4.1262871e-05
1.7514741e-07
1.0644719e-06
4.039737e-05
1.5273232e-07
9.7565896e-07
3.9607583e-05
1.348753e-07
8.9688146e-07
3.8884688e-05
1.2055568e-07
8.2701638e-07
3.8220848e-05
1.0901089e-07
7.6501855e-07
3.7609155e-05
9.963385e-08
7.0994489e-07
3.7043542e-05
9.197746e-08
6.6095091e-07
3.6518702e-05
8.5705812e-08
6.1728287e-07
3.6030009e-05
8.0552401e-08
5.7827307e-07
3.5573433e-05
7.6308285e-08
5.4333412e-07
3.5145475e-05
7.281128e-08
5.1195029e-07
3.4743091e-05
6.9934147e-08
4.8367024e-07
3.4363641e-05
6.7575452e-08
4.5810068e-07
3.4004828e-05
6.5652887e-08
4.3489997e-07
3.3664659e-05
6.4098589e-08
4.137721e-07
3.3341393e-05
6.2855886e-08
3.9446093e-07
3.3033513e-05
6.1877012e-08
3.7674528e-07
3.2739693e-05
6.1121113e-08
3.6043426e-07
3.2458768e-05
6.0553094e-08
3.4536327e-07
3.2189712e-05
6.0142672e-08
3.3139054e-07
3.1931622e-05
5.9863668e-08
3.1839379e-07
3.1683696e-05
5.9693149e-08
3.0626735e-07
3.1445219e-05
5.9611188e-08
2.9492011e-07
3.1215555e-05
5.960061e-08
2.8427316e-07
3.0994132e-05
5.9646509e-08
2.7425806e-07
3.0780436e-05
5.9736199e-08
2.648154e-07
3.0574002e-05
5.9858647e-08
2.5589334e-07
3.0374407e-05
6.000494e-08
2.4744661e-07
3.0181267e-05
6.0167628e-08
2.3943547e-07
2.9994229e-05
6.0341219e-08
2.3182485e-07
2.9812971e-05
6.0521791e-08
2.2458375e-07
2.9637193e-05
6.0704432e-08
2.1768455e-07
2.9466629e-05
6.0867257e-08
2.1110458e-07
2.9301024e-05
6.1016966e-08
2.048218e-07
2.914014e-05
6.1160862e-08
1.9881571e-07
2.8983756e-05
6.1294942e-08
1.930684e-07
2.8831669e-05
6.1415474e-08
1.8756387e-07
2.8683688e-05
6.1520998e-08
1.8228763e-07
2.8539633e-05
6.1610587e-08
1.7722635e-07
2.8399336e-05
6.1683791e-08
1.7236782e-07
2.8262639e-05
6.1740472e-08
1.677009e-07
2.8129394e-05
6.178068e-08
1.6321519e-07
2.7999461e-05
6.1803866e-08
1.5890123e-07
2.7872709e-05
6.1807378e-08
1.5475037e-07
2.7749012e-05
6.179357e-08
1.5075444e-07
2.7628253e-05
6.1764853e-08
1.4690559e-07
2.7510319e-05
6.1721016e-08
1.4319662e-07
2.7395105e-05
6.1662128e-08
1.3962085e-07
2.728251e-05
6.1588638e-08
1.3617203e-07
2.7172439e-05
6.1501078e-08
1.3284423e-07
2.7064802e-05
6.1399961e-08
1.2963194e-07
2.6959511e-05
6.1285932e-08
1.265299e-07
2.6856486e-05
6.1159533e-08
1.2353326e-07
2.6755649e-05
6.1021299e-08
1.2063729e-07
2.6656924e-05
6.0871883e-08
1.1783766e-07
2.6560242e-05
6.071171e-08
1.1513012e-07
2.6465535e-05
6.0541396e-08
1.1251081e-07
2.6372738e-05
6.0361347e-08
1.0997582e-07
2.6281791e-05
6.0171944e-08
1.0752159e-07
2.6192635e-05
5.9973537e-08
1.051447e-07
2.6105215e-05
5.9766318e-08
1.0284181e-07
2.6019477e-05
5.9550259e-08
1.0060972e-07
2.5935371e-05
5.9325119e-08
9.8445285e-08
2.585285e-05
5.9090483e-08
9.6345396e-08
2.5771868e-05
5.8845473e-08
9.4306951e-08
2.5692384e-05
5.8588991e-08
9.2326714e-08
2.5614357e-05
5.8319798e-08
9.0401429e-08
2.5537753e-05
5.8037077e-08
8.8527332e-08
2.5462539e-05
5.7741624e-08
8.6700227e-08
2.5388689e-05
5.7438385e-08
8.491517e-08
2.5316184e-05
5.7141416e-08
8.316663e-08
2.5245017e-05
5.6882571e-08
8.1449631e-08
2.51752e-05
5.6726038e-08
7.9765828e-08
2.510677e-05
5.6787912e-08
7.8149197e-08
2.5039729e-05
5.7251616e-08
7.6780983e-08
2.4973573e-05
5.8330953e-08
7.6510215e-08
2.4906079e-05
5.9989479e-08
7.9732157e-08
6.071501e-08
1.1287822e-07
0.00010503672
9.0789368e-07
6.5005614e-06
9.9140653e-05
1.6524913e-06
6.6166801e-06
9.3788329e-05
2.0825241e-06
6.1717217e-06
8.8708526e-05
2.2549373e-06
5.91053e-06
8.3909682e-05
2.278404e-06
5.6151748e-06
7.9437109e-05
2.2074821e-06
5.2497564e-06
7.5296201e-05
2.0645348e-06
4.8553893e-06
7.1474034e-05
1.8722543e-06
4.4605969e-06
6.7955013e-05
1.6547667e-06
4.0771269e-06
6.4723621e-05
1.4313505e-06
3.7107669e-06
6.1764423e-05
1.2154297e-06
3.3655007e-06
5.9062056e-05
1.015864e-06
3.0438911e-06
5.6601108e-05
8.3782742e-07
2.7471548e-06
5.4365944e-05
6.8344643e-07
2.475497e-06
5.2340648e-05
5.5258527e-07
2.2284383e-06
5.0509125e-05
4.4366548e-07
2.0050361e-06
4.8855299e-05
3.5433458e-07
1.8040352e-06
4.7363353e-05
2.8193592e-07
1.6239821e-06
4.6017963e-05
2.2381348e-07
1.4633127e-06
4.4804502e-05
1.774938e-07
1.3204181e-06
4.3709199e-05
1.4078089e-07
1.1936935e-06
4.2719248e-05
1.1179155e-07
1.081575e-06
4.1822875e-05
8.8954556e-08
9.8256584e-07
4.1009364e-05
7.0988003e-08
8.9525474e-07
4.0269054e-05
5.6861821e-08
8.1832381e-07
3.9593306e-05
4.5719104e-08
7.5058474e-07
3.8974405e-05
3.6977872e-08
6.9093436e-07
3.8405585e-05
3.0067366e-08
6.3838634e-07
3.7880869e-05
2.4650838e-08
5.9204242e-07
3.7395029e-05
2.0439976e-08
5.5110606e-07
3.6943514e-05
1.7190262e-08
5.1487715e-07
3.6522366e-05
1.4716714e-08
4.8273956e-07
3.6128148e-05
1.2874784e-08
4.5415391e-07
3.5757883e-05
1.1549896e-08
4.2864943e-07
3.5408991e-05
1.0650774e-08
4.0581706e-07
3.5079238e-05
1.0103638e-08
3.853023e-07
3.4766689e-05
9.8482578e-09
3.6679879e-07
3.4469668e-05
9.8351027e-09
3.5004232e-07
3.4186716e-05
1.0022933e-08
3.3480554e-07
3.3916567e-05
1.0377043e-08
3.2089286e-07
3.3658116e-05
1.0868087e-08
3.0813659e-07
3.3410395e-05
1.1471002e-08
2.9639285e-07
3.3172556e-05
1.2164248e-08
2.8553829e-07
3.2943852e-05
1.2929315e-08
2.7546719e-07
3.2723625e-05
1.3750169e-08
2.6608893e-07
3.2511286e-05
1.4613082e-08
2.5732571e-07
3.2306316e-05
1.5506241e-08
2.4911065e-07
3.2108246e-05
1.6419599e-08
2.4138624e-07
3.1916658e-05
1.7344635e-08
2.3410273e-07
3.1731171e-05
1.8274326e-08
2.2721712e-07
3.1551444e-05
1.9203143e-08
2.206921e-07
3.1377162e-05
2.0127701e-08
2.1449508e-07
3.1208038e-05
2.1048626e-08
2.0859679e-07
3.10438e-05
2.1972739e-08
2.0297055e-07
3.0884232e-05
2.2827825e-08
1.9760737e-07
3.0729103e-05
2.3662931e-08
1.9248228e-07
3.05782e-05
2.4489985e-08
1.8757382e-07
3.0431331e-05
2.5296299e-08
1.8286764e-07
3.0288318e-05
2.6077969e-08
1.7835077e-07
3.0148994e-05
2.6834322e-08
1.7401106e-07
3.0013202e-05
2.7564708e-08
1.6983754e-07
2.9880797e-05
2.8268962e-08
1.6582026e-07
2.975164e-05
2.8947396e-08
1.6195015e-07
2.96256e-05
2.9600783e-08
1.5821897e-07
2.9502557e-05
3.0228565e-08
1.546192e-07
2.9382396e-05
3.0823573e-08
1.5114466e-07
2.9265007e-05
3.139312e-08
1.4778878e-07
2.9150287e-05
3.1939585e-08
1.4454538e-07
2.9038137e-05
3.246189e-08
1.4140899e-07
2.8928465e-05
3.2960079e-08
1.3837459e-07
2.8821181e-05
3.3434733e-08
1.3543747e-07
2.8716203e-05
3.3886389e-08
1.3259328e-07
2.8613449e-05
3.4315557e-08
1.2983789e-07
2.8512845e-05
3.4722889e-08
1.2716736e-07
2.8414317e-05
3.5108978e-08
1.2457815e-07
2.8317797e-05
3.5474442e-08
1.2206679e-07
2.8223219e-05
3.5819903e-08
1.1963009e-07
2.813052e-05
3.6145918e-08
1.1726491e-07
2.803964e-05
3.6453082e-08
1.1496841e-07
2.7950522e-05
3.6741887e-08
1.1273775e-07
2.7863111e-05
3.7012823e-08
1.1057029e-07
2.7777354e-05
3.7266234e-08
1.0846344e-07
2.7693204e-05
3.7502477e-08
1.0641477e-07
2.761061e-05
3.7721615e-08
1.0442175e-07
2.752953e-05
3.792353e-08
1.02482e-07
2.7449919e-05
3.810798e-08
1.0059309e-07
2.7371738e-05
3.8274277e-08
9.8752316e-08
2.7294949e-05
3.8421514e-08
9.6956907e-08
2.7219516e-05
3.8548718e-08
9.5203623e-08
2.714541e-05
3.8655097e-08
9.3488609e-08
2.7072603e-05
3.8741141e-08
9.1806952e-08
2.7001079e-05
3.881026e-08
9.0152313e-08
2.6930832e-05
3.8872126e-08
8.8516558e-08
2.6861876e-05
3.8947372e-08
8.6890508e-08
2.679426e-05
3.9073512e-08
8.526919e-08
2.6728065e-05
3.9306977e-08
8.3675944e-08
2.6663337e-05
3.9708343e-08
8.2271152e-08
2.659956e-05
4.027201e-08
8.1836177e-08
2.6534295e-05
4.0698033e-08
8.4555716e-08
3.9620832e-08
1.1507133e-07
0.00010494757
5.6811082e-07
6.5033076e-06
9.8925416e-05
1.0462983e-06
6.6283517e-06
9.3480449e-05
1.3439844e-06
6.1835065e-06
8.8341777e-05
1.4751324e-06
5.9184763e-06
8.3502084e-05
1.4993911e-06
5.6187065e-06
7.9004057e-05
1.4572411e-06
5.2482679e-06
7.4853978e-05
1.3667382e-06
4.8478756e-06
7.1037378e-05
1.2423973e-06
4.4464569e-06
6.7536063e-05
1.0997693e-06
4.0563127e-06
6.4331998e-05
9.5192355e-07
3.6834909e-06
6.1407318e-05
8.0805751e-07
3.3320524e-06
5.8744339e-05
6.7422201e-07
3.0046209e-06
5.6325632e-05
5.5404398e-07
2.7024907e-06
5.4133973e-05
4.4916748e-07
2.4259383e-06
5.2152298e-05
3.59724e-07
2.174536e-06
5.0363747e-05
2.8484514e-07
1.9473717e-06
4.875178e-05
2.2310003e-07
1.7432015e-06
4.7300339e-05
1.7281166e-07
1.5605647e-06
4.5994012e-05
1.322657e-07
1.3978748e-06
4.4818177e-05
9.9840021e-08
1.2534891e-06
4.3759121e-05
7.4075613e-08
1.1257614e-06
4.2804123e-05
5.3707648e-08
1.0130814e-06
4.1941503e-05
3.7671209e-08
9.1390377e-07
4.1160627e-05
2.5096502e-08
8.2676736e-07
4.0451891e-05
1.5294162e-08
7.503039e-07
3.980679e-05
7.5281925e-09
6.8329176e-07
3.9217543e-05
1.6727449e-09
6.2455204e-07
3.8677513e-05
-3.0331359e-09
5.7313082e-07
3.8180739e-05
-6.6486727e-09
5.2807354e-07
3.7722004e-05
-9.3594819e-09
4.8853449e-07
3.7296777e-05
-1.1371787e-08
4.537893e-07
3.6901112e-05
-1.2818248e-08
4.2319913e-07
3.6531588e-05
-1.3805323e-08
3.962048e-07
3.6185236e-05
-1.441749e-08
3.7231874e-07
3.5859491e-05
-1.4721904e-08
3.5111776e-07
3.5552132e-05
-1.4772664e-08
3.3223576e-07
3.5261237e-05
-1.4613898e-08
3.1535728e-07
3.4985143e-05
-1.4282158e-08
3.0021087e-07
3.472241e-05
-1.3807662e-08
2.8656374e-07
3.4471787e-05
-1.3215879e-08
2.7421628e-07
3.4232185e-05
-1.252818e-08
2.629977e-07
3.4002657e-05
-1.1762773e-08
2.5276176e-07
3.3782373e-05
-1.0935195e-08
2.4338338e-07
3.3570606e-05
-1.0058749e-08
2.3475559e-07
3.3366714e-05
-9.1447295e-09
2.2678674e-07
3.3170131e-05
-8.2028276e-09
2.1939833e-07
3.2980356e-05
-7.2412329e-09
2.1252301e-07
3.279694e-05
-6.2668968e-09
2.0610281e-07
3.2619482e-05
-5.2855524e-09
2.0008785e-07
3.2447623e-05
-4.3018295e-09
1.9443477e-07
3.228104e-05
-3.3190826e-09
1.8910585e-07
3.2119438e-05
-2.3383412e-09
1.8406733e-07
3.1962554e-05
-1.3530517e-09
1.7928651e-07
3.1810075e-05
-2.7634433e-10
1.7472767e-07
3.1661878e-05
5.8578994e-10
1.7043904e-07
3.1517732e-05
1.4356036e-09
1.6637294e-07
3.1377429e-05
2.3038356e-09
1.6248961e-07
3.1240792e-05
3.1586505e-09
1.5877486e-07
3.1107656e-05
3.9969896e-09
1.5521718e-07
3.0977867e-05
4.8171743e-09
1.5180547e-07
3.0851284e-05
5.6179662e-09
1.4852968e-07
3.0727773e-05
6.3990346e-09
1.4538078e-07
3.0607209e-05
7.1609425e-09
1.4235057e-07
3.0489473e-05
7.9059356e-09
1.3943124e-07
3.037445e-05
8.6357371e-09
1.3661578e-07
3.0262049e-05
9.3206439e-09
1.3390397e-07
3.0152163e-05
9.9938019e-09
1.3128566e-07
3.0044697e-05
1.0650353e-08
1.2875515e-07
2.9939564e-05
1.1286729e-08
1.2630828e-07
2.983668e-05
1.1903203e-08
1.2394087e-07
2.9735965e-05
1.2500164e-08
1.2164882e-07
2.9637345e-05
1.3077868e-08
1.1942841e-07
2.9540748e-05
1.3636692e-08
1.1727618e-07
2.9446105e-05
1.4177013e-08
1.1518885e-07
2.9353352e-05
1.469913e-08
1.1316338e-07
2.9262425e-05
1.5203527e-08
1.11197e-07
2.9173268e-05
1.5690464e-08
1.0928707e-07
2.9085822e-05
1.6160342e-08
1.0743107e-07
2.9000035e-05
1.6613551e-08
1.0562662e-07
2.8915855e-05
1.7050366e-08
1.0387152e-07
2.8833233e-05
1.7471068e-08
1.021636e-07
2.8752123e-05
1.787596e-08
1.0050081e-07
2.8672479e-05
1.8265097e-08
9.8881099e-08
2.8594259e-05
1.8638556e-08
9.7302502e-08
2.8517424e-05
1.8996211e-08
9.5762941e-08
2.8441934e-05
1.933781e-08
9.4260332e-08
2.8367753e-05
1.9662763e-08
9.2792347e-08
2.8294848e-05
1.9970459e-08
9.1356281e-08
2.8223187e-05
2.0260001e-08
8.9948879e-08
2.8152746e-05
2.0530701e-08
8.8565906e-08
2.8083503e-05
2.0782615e-08
8.720179e-08
2.8015447e-05
2.1017535e-08
8.5848684e-08
2.7948582e-05
2.1240722e-08
8.4495825e-08
2.7882937e-05
2.146275e-08
8.3129505e-08
2.7818574e-05
2.1699987e-08
8.1736524e-08
2.7755588e-05
2.1969296e-08
8.0324338e-08
2.7694014e-05
2.2266177e-08
7.9016071e-08
2.7633299e-05
2.2506285e-08
7.8480635e-08
2.7571004e-05
2.2393406e-08
8.0599467e-08
2.0993084e-08
1.0779948e-07
0.00010489986
2.7443377e-07
6.5049155e-06
9.8802772e-05
5.0716633e-07
6.6362236e-06
9.329591e-05
6.5854975e-07
6.1922972e-06
8.8116302e-05
7.2902546e-07
5.9257148e-06
8.3248198e-05
7.4378813e-07