/*--------------------------------*- C++ -*----------------------------------*\
  =========                 |
  \\      /  F ield         | OpenFOAM: The Open Source CFD Toolbox
   \\    /   O peration     | Website:  https://openfoam.org
    \\  /    A nd           | Version:  7
     \\/     M anipulation  |
\*---------------------------------------------------------------------------*/
FoamFile
{
    version     2.0;
    format      ascii;
    class       surfaceScalarField;
    location    "1100/water";
    object      phi;
}
// * * * * * * * * * * * * * * * * * * * * * * * * * * * * * * * * * * * * * //

dimensions      [1 0 -1 0 0 0 0];

internalField   nonuniform List<scalar> 
156660
(
9.905724e-05
6.0010402e-06
6.0528092e-06
8.6847498e-05
6.0555113e-06
6.1542307e-06
7.5687891e-05
5.5111362e-06
5.6484701e-06
6.5441704e-05
5.0404181e-06
5.2057689e-06
5.6267661e-05
4.4956436e-06
4.6783991e-06
4.8318019e-05
3.8797648e-06
4.0698777e-06
4.1624776e-05
3.2524448e-06
3.4407981e-06
3.6124897e-05
2.660462e-06
2.839417e-06
3.1692235e-05
2.1345126e-06
2.2981489e-06
2.8162841e-05
1.6926975e-06
1.8366964e-06
2.5361437e-05
1.3399933e-06
1.4614113e-06
2.3124664e-05
1.0698477e-06
1.1669256e-06
2.1315127e-05
8.6875422e-07
9.4078226e-07
1.9825714e-05
7.2110064e-07
7.6831274e-07
1.8577278e-05
6.1248241e-07
6.3595311e-07
1.7513255e-05
5.312522e-07
5.3277153e-07
1.6593744e-05
4.6879728e-07
4.5071349e-07
1.5790433e-05
4.1913719e-07
3.8417387e-07
1.5082784e-05
3.7829069e-07
3.2935848e-07
1.4455417e-05
3.4367128e-07
2.8369563e-07
1.3896409e-05
3.1361409e-07
2.4539336e-07
1.339622e-05
2.8704449e-07
2.1314455e-07
1.2947015e-05
2.6326033e-07
1.8594513e-07
1.2542237e-05
2.4179366e-07
1.6298463e-07
1.2176318e-05
2.2232208e-07
1.435969e-07
1.1844484e-05
2.0461481e-07
1.2721882e-07
1.1542609e-05
1.8849492e-07
1.1337976e-07
1.1267116e-05
1.7381572e-07
1.0167795e-07
1.1014892e-05
1.6046271e-07
9.1760836e-08
1.0783252e-05
1.483397e-07
8.3300604e-08
1.0569851e-05
1.3734905e-07
7.6052119e-08
1.0372614e-05
1.2738863e-07
6.9848295e-08
1.0189731e-05
1.1836809e-07
6.4514846e-08
1.001963e-05
1.1020447e-07
5.9896612e-08
9.8609388e-06
1.0281922e-07
5.5871671e-08
9.7124595e-06
9.6137972e-08
5.2341386e-08
9.5731439e-06
9.0091159e-08
4.9224364e-08
9.4420759e-06
8.4614462e-08
4.6453577e-08
9.3184531e-06
7.9648667e-08
4.3974147e-08
9.2015723e-06
7.5139719e-08
4.1741079e-08
9.0908166e-06
7.1038162e-08
3.971756e-08
8.9856431e-06
6.7301154e-08
3.7872282e-08
8.8855707e-06
6.3894241e-08
3.6178149e-08
8.7901757e-06
6.0780075e-08
3.4614941e-08
8.6990829e-06
5.7926148e-08
3.3166643e-08
8.611959e-06
5.5303721e-08
3.1820141e-08
8.5285072e-06
5.2887433e-08
3.0564409e-08
8.4484618e-06
5.0655064e-08
2.9390299e-08
8.3715848e-06
4.8587046e-08
2.8290013e-08
8.2976614e-06
4.6666193e-08
2.7257221e-08
8.2264975e-06
4.4877484e-08
2.6286417e-08
8.1579202e-06
4.3208801e-08
2.5368523e-08
8.0917731e-06
4.1649089e-08
2.4498031e-08
8.0279108e-06
4.0186978e-08
2.3675354e-08
7.9662006e-06
3.8812698e-08
2.2897511e-08
7.9065219e-06
3.7518379e-08
2.2160234e-08
7.8487639e-06
3.6297873e-08
2.1460151e-08
7.7928242e-06
3.5145157e-08
2.079459e-08
7.7386084e-06
3.405468e-08
2.0161149e-08
7.6860293e-06
3.3021374e-08
1.9557691e-08
7.6350062e-06
3.2040807e-08
1.8982234e-08
7.5854641e-06
3.1109088e-08
1.8433076e-08
7.537333e-06
3.02226e-08
1.7908503e-08
7.4905478e-06
2.9378228e-08
1.7407019e-08
7.4450476e-06
2.8573001e-08
1.6927185e-08
7.4007756e-06
2.7804236e-08
1.6467791e-08
7.3576783e-06
2.7069592e-08
1.6027633e-08
7.3157057e-06
2.6367038e-08
1.5605606e-08
7.2748103e-06
2.5694637e-08
1.520067e-08
7.2349479e-06
2.5050548e-08
1.4811809e-08
7.1960766e-06
2.4433075e-08
1.4438173e-08
7.158157e-06
2.3840668e-08
1.4078936e-08
7.1211518e-06
2.3271911e-08
1.3733274e-08
7.0850258e-06
2.2725505e-08
1.3400525e-08
7.0497457e-06
2.2200201e-08
1.3079965e-08
7.0152798e-06
2.1694923e-08
1.2770887e-08
6.9815985e-06
2.1208592e-08
1.2472776e-08
6.9486734e-06
2.0740244e-08
1.2184963e-08
6.9164776e-06
2.0288999e-08
1.1906823e-08
6.8849858e-06
1.985397e-08
1.1637835e-08
6.8541739e-06
1.9434383e-08
1.1377472e-08
6.8240194e-06
1.9029442e-08
1.1125129e-08
6.7945006e-06
1.8638465e-08
1.0880236e-08
6.7655976e-06
1.8260746e-08
1.0642299e-08
6.7372913e-06
1.7895526e-08
1.0410759e-08
6.709564e-06
1.7542089e-08
1.0185096e-08
6.6823995e-06
1.7199629e-08
9.9648818e-09
6.6557824e-06
1.6867257e-08
9.7498139e-09
6.6296983e-06
1.6544147e-08
9.5399891e-09
6.6041331e-06
1.6229275e-08
9.3360137e-09
6.5790714e-06
1.5922002e-08
9.1396796e-09
6.554494e-06
1.5622355e-08
8.9550914e-09
6.5303708e-06
1.5332559e-08
8.7906799e-09
6.5066467e-06
1.5060472e-08
8.6636079e-09
6.4832094e-06
1.4827784e-08
8.6095076e-09
6.4598103e-06
1.4693077e-08
8.7060291e-09
6.4358387e-06
1.4826412e-08
9.1451522e-09
6.4096302e-06
1.5741764e-08
1.0466748e-08
6.3782854e-06
1.8026558e-08
1.3318229e-08
3.2300211e-08
2.7923556e-08
0.00010646494
4.1872385e-06
6.4599816e-06
0.0001002019
5.695418e-06
6.6231353e-06
9.3659588e-05
5.7790389e-06
6.2744098e-06
8.7011589e-05
5.6514782e-06
6.0369387e-06
8.0422927e-05
5.366912e-06
5.7173941e-06
7.4094022e-05
4.9022832e-06
5.3063862e-06
6.8167026e-05
4.3278136e-06
4.8516272e-06
6.2722565e-05
3.717891e-06
4.387032e-06
5.7799049e-05
3.1243144e-06
3.9337145e-06
5.3403345e-05
2.5820689e-06
3.5063329e-06
4.9517402e-05
2.1121062e-06
3.1138299e-06
4.6105482e-05
1.7220197e-06
2.7597473e-06
4.3121558e-05
1.4089355e-06
2.4437429e-06
4.0515558e-05
1.1637552e-06
2.163346e-06
3.8237948e-05
9.748585e-07
1.9152337e-06
3.6242683e-05
8.3055974e-07
1.6959573e-06
3.4488759e-05
7.2043696e-07
1.5022849e-06
3.2940716e-05
6.3586296e-07
1.3313172e-06
3.1568463e-05
5.7005002e-07
1.180493e-06
3.0346733e-05
5.1784894e-07
1.0475522e-06
2.9254398e-05
4.7545954e-07
9.3049033e-07
2.8273782e-05
4.401396e-07
8.2752025e-07
2.7390054e-05
4.0994893e-07
7.3704008e-07
2.6590699e-05
3.8353957e-07
6.5760856e-07
2.5865102e-05
3.5998887e-07
5.8793071e-07
2.5204197e-05
3.386763e-07
5.2684261e-07
2.4600205e-05
3.1918359e-07
4.733035e-07
2.4046429e-05
3.0120191e-07
4.2639016e-07
2.3537072e-05
2.8455206e-07
3.8526716e-07
2.3067119e-05
2.69111e-07
3.4918238e-07
2.2632208e-05
2.5478167e-07
3.1747785e-07
2.2228528e-05
2.4147384e-07
2.895953e-07
2.1852744e-05
2.2911072e-07
2.6504124e-07
2.1501947e-05
2.1762895e-07
2.4337257e-07
2.1173591e-05
2.0696949e-07
2.2420571e-07
2.0865444e-05
1.9707565e-07
2.0720866e-07
2.0575549e-05
1.8789252e-07
1.92094e-07
2.0302183e-05
1.7936722e-07
1.7861344e-07
2.0043829e-05
1.714491e-07
1.6655324e-07
1.979915e-05
1.6408982e-07
1.5572943e-07
1.956696e-05
1.5724385e-07
1.4598403e-07
1.934621e-05
1.5086897e-07
1.3718217e-07
1.9135969e-05
1.4492652e-07
1.2920881e-07
1.8935407e-05
1.3937904e-07
1.2196309e-07
1.8743783e-05
1.3419226e-07
1.1535764e-07
1.8560435e-05
1.2933508e-07
1.093173e-07
1.8384766e-05
1.2477904e-07
1.0377715e-07
1.8216241e-05
1.2049852e-07
9.8681276e-08
1.8054377e-05
1.1647014e-07
9.3981298e-08
1.7898734e-05
1.126729e-07
8.9635422e-08
1.7748917e-05
1.090882e-07
8.5607005e-08
1.7604563e-05
1.0570003e-07
8.1862371e-08
1.7465345e-05
1.0249337e-07
7.8373257e-08
1.7330962e-05
9.9452967e-08
7.5116973e-08
1.7201138e-05
9.6564391e-08
7.2072719e-08
1.7075619e-05
9.3816645e-08
6.9221151e-08
1.695417e-05
9.120111e-08
6.6545124e-08
1.6836577e-05
8.8709126e-08
6.4029571e-08
1.6722638e-05
8.6331969e-08
6.1661026e-08
1.661217e-05
8.4061777e-08
5.9427681e-08
1.6505001e-05
8.1891513e-08
5.731882e-08
1.640097e-05
7.9814905e-08
5.5324826e-08
1.6299929e-05
7.7826168e-08
5.3437117e-08
1.620174e-05
7.5919868e-08
5.1647919e-08
1.6106272e-05
7.4091037e-08
4.9950103e-08
1.6013404e-05
7.2334999e-08
4.8337402e-08
1.5923022e-05
7.064773e-08
4.6803852e-08
1.5835019e-05
6.902574e-08
4.5344245e-08
1.5749294e-05
6.7465515e-08
4.3953689e-08
1.5665753e-05
6.5963769e-08
4.2627697e-08
1.5584307e-05
6.4517369e-08
4.1362163e-08
1.5504871e-05
6.3123387e-08
4.0153358e-08
1.5427366e-05
6.1779261e-08
3.899779e-08
1.5351716e-05
6.0482544e-08
3.7892277e-08
1.5277852e-05
5.9230869e-08
3.6833842e-08
1.5205705e-05
5.8022024e-08
3.5819723e-08
1.5135212e-05
5.6854002e-08
3.4847361e-08
1.5066313e-05
5.5724991e-08
3.3914369e-08
1.4998951e-05
5.463314e-08
3.3018413e-08
1.493307e-05
5.3576775e-08
3.2157426e-08
1.4868621e-05
5.2554187e-08
3.1329414e-08
1.4805554e-05
5.1563966e-08
3.0532466e-08
1.4743823e-05
5.06045e-08
2.9764695e-08
1.4683386e-05
4.9674286e-08
2.9024379e-08
1.4624199e-05
4.8771797e-08
2.8309874e-08
1.4566226e-05
4.7895472e-08
2.7619563e-08
1.4509431e-05
4.7043507e-08
2.6951965e-08
1.4453778e-05
4.6214119e-08
2.6305766e-08
1.4399237e-05
4.5405408e-08
2.5679873e-08
1.4345777e-05
4.4615703e-08
2.507377e-08
1.4293367e-05
4.3844279e-08
2.4487689e-08
1.4241972e-05
4.3092895e-08
2.3923765e-08
1.4191548e-05
4.2369921e-08
2.3387146e-08
1.4142019e-05
4.1699328e-08
2.2889664e-08
1.4093249e-05
4.1141641e-08
2.2456615e-08
1.4044951e-05
4.0844654e-08
2.2146544e-08
1.3996485e-05
4.1169195e-08
2.2123036e-08
1.3946229e-05
4.30123e-08
2.2985369e-08
1.389015e-05
4.8540257e-08
2.5565801e-08
6.3281572e-08
5.0000862e-08
0.00010603565
2.7876425e-06
6.4750379e-06
0.00010074799
4.4145412e-06
6.5685292e-06
9.5493515e-05
4.8594028e-06
6.1741158e-06
9.0256432e-05
4.930369e-06
5.9581921e-06
8.5101366e-05
4.8311767e-06
5.6908012e-06
8.0102875e-05
4.5561761e-06
5.3445981e-06
7.5322251e-05
4.1469521e-06
4.9614853e-06
7.0803266e-05
3.6678925e-06
4.5689837e-06
6.6576264e-05
3.1701903e-06
4.1811255e-06
6.2660725e-05
2.690011e-06
3.8075976e-06
5.9065443e-05
2.2519319e-06
3.4554566e-06
5.5788936e-05
1.8697304e-06
3.1287958e-06
5.2820978e-05
1.5477473e-06
2.8291458e-06
5.014479e-05
1.2836302e-06
2.556314e-06
4.7739304e-05
1.07123e-06
2.3091141e-06
4.5581183e-05
9.0281506e-07
2.0858661e-06
4.3646423e-05
7.7048779e-07
1.884709e-06
4.1911533e-05
6.6697371e-07
1.7037793e-06
4.0354306e-05
5.8598196e-07
1.541295e-06
3.8954268e-05
5.2230222e-07
1.3955849e-06
3.769288e-05
4.7175607e-07
1.265091e-06
3.6553576e-05
4.3107987e-07
1.1483634e-06
3.552169e-05
3.9778209e-07
1.0440533e-06
3.4584322e-05
3.6999885e-07
9.5090828e-07
3.3730181e-05
3.4635984e-07
8.6777014e-07
3.2949411e-05
3.2587759e-07
7.935687e-07
3.2233419e-05
3.0784046e-07
7.2733485e-07
3.1574711e-05
2.9172984e-07
6.6818104e-07
3.0966769e-05
2.7719262e-07
6.1530129e-07
3.0403928e-05
2.6398099e-07
5.6797017e-07
2.9881258e-05
2.5190846e-07
5.2554313e-07
2.9394455e-05
2.4082713e-07
4.8745001e-07
2.8939761e-05
2.3062159e-07
4.531833e-07
2.8513895e-05
2.2120152e-07
4.2229386e-07
2.8113985e-05
2.1249193e-07
3.9438672e-07
2.7737518e-05
2.0442798e-07
3.6911491e-07
2.7382285e-05
1.969519e-07
3.4617386e-07
2.7046344e-05
1.9001176e-07
3.2529679e-07
2.6727982e-05
1.8355992e-07
3.0625046e-07
2.6425689e-05
1.7755272e-07
2.8883086e-07
2.6138122e-05
1.7195004e-07
2.7285984e-07
2.5864094e-05
1.6671516e-07
2.5818182e-07
2.5602546e-05
1.6181453e-07
2.4466091e-07
2.535253e-05
1.572171e-07
2.3217767e-07
2.51132e-05
1.5289441e-07
2.2062728e-07
2.4883797e-05
1.4882096e-07
2.0991773e-07
2.4663634e-05
1.4497367e-07
1.9996814e-07
2.4452094e-05
1.4133182e-07
1.9070707e-07
2.4248615e-05
1.3787697e-07
1.8207153e-07
2.405269e-05
1.3459263e-07
1.740057e-07
2.3863854e-05
1.3146461e-07
1.6645989e-07
2.3681684e-05
1.2848057e-07
1.5938925e-07
2.3505794e-05
1.2562917e-07
1.5275411e-07
2.3335829e-05
1.2289868e-07
1.4651969e-07
2.3171462e-05
1.2027632e-07
1.4065461e-07
2.3012394e-05
1.1775475e-07
1.3513022e-07
2.2858345e-05
1.153297e-07
1.2992043e-07
2.2709057e-05
1.1299538e-07
1.2500172e-07
2.2564291e-05
1.1074518e-07
1.203529e-07
2.2423824e-05
1.0857348e-07
1.1595457e-07
2.2287451e-05
1.0647546e-07
1.1178923e-07
2.2154978e-05
1.0444699e-07
1.0784079e-07
2.2026226e-05
1.0248418e-07
1.0409458e-07
2.1901025e-05
1.0058354e-07
1.0053712e-07
2.1779218e-05
9.8741569e-08
9.7156151e-08
2.1660658e-05
9.6954926e-08
9.3940296e-08
2.1545205e-05
9.522129e-08
9.0879045e-08
2.1432729e-05
9.3538817e-08
8.7962802e-08
2.1323107e-05
9.1905321e-08
8.5182598e-08
2.1216222e-05
9.0318523e-08
8.2530201e-08
2.1111965e-05
8.8776413e-08
7.9997895e-08
2.1010233e-05
8.727713e-08
7.757868e-08
2.0910927e-05
8.581894e-08
7.5265863e-08
2.0813956e-05
8.440032e-08
7.3053427e-08
2.0719232e-05
8.3019678e-08
7.0935626e-08
2.0626671e-05
8.1675666e-08
6.8907188e-08
2.0536195e-05
8.0366791e-08
6.6963112e-08
2.0447729e-05
7.9091967e-08
6.5098785e-08
2.0361203e-05
7.7849842e-08
6.3309787e-08
2.0276548e-05
7.6639239e-08
6.159203e-08
2.0193702e-05
7.5458975e-08
5.9941737e-08
2.0112602e-05
7.4307976e-08
5.8355222e-08
2.0033193e-05
7.3184954e-08
5.6829041e-08
1.9955419e-05
7.2088638e-08
5.5359977e-08
1.9879228e-05
7.1017631e-08
5.3944852e-08
1.9804572e-05
6.9970406e-08
5.2580752e-08
1.9731406e-05
6.8945237e-08
5.1264787e-08
1.9659685e-05
6.7940118e-08
4.999438e-08
1.9589371e-05
6.6953046e-08
4.8767047e-08
1.9520423e-05
6.5982352e-08
4.7580548e-08
1.9452806e-05
6.5028019e-08
4.6433117e-08
1.9386481e-05
6.4094133e-08
4.5323732e-08
1.9321404e-05
6.3194729e-08
4.4253101e-08
1.9257511e-05
6.2366337e-08
4.322523e-08
1.9194705e-05
6.1695173e-08
4.2253135e-08
1.9132798e-05
6.1374077e-08
4.1377384e-08
1.9071394e-05
6.1822429e-08
4.0750643e-08
1.9009424e-05
6.3924714e-08
4.1057572e-08
1.8944661e-05
6.9304665e-08
4.3998848e-08
7.9170954e-08
7.466154e-08
0.0001054937
1.9169871e-06
6.4880406e-06
0.00010005365
3.2729596e-06
6.5816334e-06
9.4926077e-05
3.8288995e-06
6.1580776e-06
8.9946373e-05
3.9838109e-06
5.9262629e-06
8.5163276e-05
3.9595077e-06
5.6547657e-06
8.0619137e-05
3.7899369e-06
5.3103784e-06
7.6329462e-05
3.5015547e-06
4.9350725e-06
7.230016e-05
3.1412013e-06
4.5559928e-06
6.8534206e-05
2.7514802e-06
4.1846641e-06
6.5032983e-05
2.3633493e-06
3.8278853e-06
6.1795789e-05
1.9984144e-06
3.490711e-06
5.8818843e-05
1.6703759e-06
3.176301e-06
5.6094717e-05
1.3858295e-06
2.886043e-06
5.3612488e-05
1.1457944e-06
2.6200649e-06
5.1358373e-05
9.4764116e-07
2.3777043e-06
4.9316593e-05
7.8676784e-07
2.1578272e-06
4.7470246e-05
6.5779544e-07
1.9590391e-06
4.5802069e-05
5.5532538e-07
1.7798252e-06
4.4295042e-05
4.7437115e-07
1.6186378e-06
4.293283e-05
4.1056666e-07
1.473948e-06
4.1700078e-05
3.6023237e-07
1.3442759e-06
4.0582591e-05
3.2035747e-07
1.2282094e-06
3.956742e-05
2.8853736e-07
1.1244154e-06
3.8642881e-05
2.6289067e-07
1.0316467e-06
3.7798527e-05
2.4196987e-07
9.4874401e-07
3.7025076e-05
2.2467706e-07
8.7465171e-07
3.6314324e-05
2.1018901e-07
8.0840413e-07
3.5659057e-05
1.9788607e-07
7.4911041e-07
3.5052961e-05
1.8731585e-07
6.9597281e-07
3.4490519e-05
1.781487e-07
6.482738e-07
3.3966922e-05
1.7013169e-07
6.0537438e-07
3.3477973e-05
1.6306727e-07
5.6670868e-07
3.3020016e-05
1.5680297e-07
5.3177542e-07
3.2589865e-05
1.5122056e-07
5.001324e-07
3.218474e-05
1.4622563e-07
4.7139137e-07
3.1802215e-05
1.4174073e-07
4.4521231e-07
3.1440168e-05
1.3770096e-07
4.2129811e-07
3.1096739e-05
1.3405096e-07
3.9938921e-07
3.0770297e-05
1.3074295e-07
3.7925954e-07
3.0459402e-05
1.2773519e-07
3.6071196e-07
3.0162787e-05
1.2499092e-07
3.4357478e-07
2.9879325e-05
1.2247786e-07
3.2769852e-07
2.960802e-05
1.2016731e-07
3.1295272e-07
2.934798e-05
1.1803382e-07
2.9922354e-07
2.9098408e-05
1.1605462e-07
2.8641139e-07
2.885859e-05
1.1420982e-07
2.7442909e-07
2.8627882e-05
1.1248188e-07
2.6319999e-07
2.8405701e-05
1.1085559e-07
2.5265684e-07
2.819152e-05
1.0931758e-07
2.4274022e-07
2.7984859e-05
1.0785645e-07
2.3339756e-07
2.7785279e-05
1.0646277e-07
2.245821e-07
2.7592379e-05
1.0512872e-07
2.1625214e-07
2.740579e-05
1.0384735e-07
2.0837033e-07
2.7225174e-05
1.0261115e-07
2.0090359e-07
2.705022e-05
1.0140743e-07
1.9382257e-07
2.6880641e-05
1.0023385e-07
1.8710042e-07
2.6716166e-05
9.9092336e-08
1.8071223e-07
2.6556546e-05
9.7979995e-08
1.7463558e-07
2.6401548e-05
9.6892533e-08
1.6885014e-07
2.6250957e-05
9.5827084e-08
1.6333741e-07
2.610457e-05
9.4781671e-08
1.5808046e-07
2.5962199e-05
9.3754699e-08
1.5306363e-07
2.5823666e-05
9.2744855e-08
1.4827261e-07
2.5688804e-05
9.1751019e-08
1.4369414e-07
2.5557458e-05
9.0771795e-08
1.3931599e-07
2.5429481e-05
8.9805193e-08
1.3512691e-07
2.5304734e-05
8.8851482e-08
1.3111645e-07
2.5183087e-05
8.7911198e-08
1.2727466e-07
2.5064416e-05
8.6983936e-08
1.2359244e-07
2.4948604e-05
8.6068917e-08
1.200612e-07
2.4835542e-05
8.5165815e-08
1.16673e-07
2.4725124e-05
8.4274347e-08
1.1342047e-07
2.4617252e-05
8.339428e-08
1.1029656e-07
2.4511832e-05
8.2525494e-08
1.0729478e-07
2.4408775e-05
8.1667736e-08
1.0440898e-07
2.4307997e-05
8.0820981e-08
1.0163339e-07
2.4209416e-05
7.9985023e-08
9.8962652e-08
2.4112956e-05
7.9159747e-08
9.6391546e-08
2.4018546e-05
7.834503e-08
9.3915322e-08
2.3926115e-05
7.7540692e-08
9.15293e-08
2.3835598e-05
7.6746566e-08
8.9229298e-08
2.3746933e-05
7.5962311e-08
8.7011043e-08
2.366006e-05
7.5187646e-08
8.4870722e-08
2.3574922e-05
7.4421996e-08
8.280455e-08
2.3491466e-05
7.3664604e-08
8.0808934e-08
2.3409641e-05
7.2914623e-08
7.888037e-08
2.33294e-05
7.2170683e-08
7.7015484e-08
2.3250698e-05
7.1431334e-08
7.5211025e-08
2.3173493e-05
7.0694863e-08
7.3463627e-08
2.3097745e-05
6.9960205e-08
7.177007e-08
2.3023418e-05
6.9227965e-08
7.0127031e-08
2.2950477e-05
6.8503502e-08
6.853118e-08
2.2878889e-05
6.7802895e-08
6.6979698e-08
2.2808619e-05
6.7165065e-08
6.5471594e-08
2.2739625e-05
6.6675259e-08
6.4013373e-08
2.267185e-05
6.6507087e-08
6.2642314e-08
2.2605149e-05
6.699073e-08
6.1532322e-08
2.2538888e-05
6.8686013e-08
6.1499886e-08
2.2471121e-05
7.2226953e-08
6.4845129e-08
7.6722827e-08
9.8461297e-08
0.0001051979
1.3340885e-06
6.4961221e-06
9.9496561e-05
2.3731022e-06
6.6011947e-06
9.4262459e-05
2.9019223e-06
6.1610799e-06
8.9251186e-05
3.0856642e-06
5.9094196e-06
8.4493498e-05
3.0947347e-06
5.6224614e-06
8.0033635e-05
2.9846657e-06
5.2651341e-06
7.5876907e-05
2.7790155e-06
4.8792667e-06
7.2014635e-05
2.5106844e-06
4.4927895e-06
6.8436293e-05
2.2128728e-06
4.1169489e-06
6.5131387e-05
1.9107259e-06
3.7575292e-06
6.208941e-05
1.621732e-06
3.4186596e-06
5.9299432e-05
1.3573877e-06
3.1029661e-06
5.6749588e-05
1.1240344e-06
2.8116387e-06
5.4426788e-05
9.2377947e-07
2.5448158e-06
5.2316754e-05
7.55728e-07
2.3019466e-06
5.0404313e-05
6.1717855e-07
2.0820302e-06
4.8673788e-05
5.045435e-07
1.8837772e-06
4.7109414e-05
4.1397178e-07
1.7057274e-06
4.5695713e-05
3.4173649e-07
1.5463363e-06
4.4417792e-05
2.8445148e-07
1.4040359e-06
4.3261575e-05
2.3917116e-07
1.277278e-06
4.2213952e-05
2.0341506e-07
1.1645652e-06
4.1262871e-05
1.7514743e-07
1.0644718e-06
4.039737e-05
1.5273234e-07
9.7565899e-07
3.9607583e-05
1.3487531e-07
8.9688143e-07
3.8884688e-05
1.2055568e-07
8.2701639e-07
3.8220848e-05
1.0901092e-07
7.6501858e-07
3.7609155e-05
9.9633833e-08
7.0994485e-07
3.7043542e-05
9.1977435e-08
6.609509e-07
3.6518702e-05
8.5705819e-08
6.1728291e-07
3.6030009e-05
8.0552385e-08
5.7827307e-07
3.5573433e-05
7.6308279e-08
5.4333412e-07
3.5145475e-05
7.2811281e-08
5.1195028e-07
3.4743091e-05
6.993412e-08
4.8367021e-07
3.4363641e-05
6.7575458e-08
4.5810065e-07
3.4004828e-05
6.5652884e-08
4.3489994e-07
3.3664659e-05
6.4098594e-08
4.1377208e-07
3.3341393e-05
6.285592e-08
3.9446094e-07
3.3033513e-05
6.1877057e-08
3.7674526e-07
3.2739693e-05
6.1121096e-08
3.6043427e-07
3.2458768e-05
6.0553082e-08
3.4536329e-07
3.2189712e-05
6.0142641e-08
3.3139057e-07
3.1931622e-05
5.9863637e-08
3.1839375e-07
3.1683696e-05
5.9693109e-08
3.0626734e-07
3.1445219e-05
5.9611209e-08
2.9492012e-07
3.1215555e-05
5.9600606e-08
2.8427316e-07
3.0994132e-05
5.9646562e-08
2.7425807e-07
3.0780436e-05
5.9736158e-08
2.6481536e-07
3.0574002e-05
5.9858663e-08
2.5589333e-07
3.0374407e-05
6.0004931e-08
2.4744663e-07
3.0181267e-05
6.016764e-08
2.3943546e-07
2.9994229e-05
6.0341233e-08
2.3182485e-07
2.9812971e-05
6.0521807e-08
2.2458373e-07
2.9637193e-05
6.0704422e-08
2.1768454e-07
2.9466629e-05
6.0867279e-08
2.1110458e-07
2.9301024e-05
6.1016984e-08
2.0482179e-07
2.914014e-05
6.1160895e-08
1.9881569e-07
2.8983756e-05
6.1294963e-08
1.9306839e-07
2.8831669e-05
6.1415491e-08
1.875639e-07
2.8683688e-05
6.1520961e-08
1.8228766e-07
2.8539633e-05
6.1610558e-08
1.7722638e-07
2.8399336e-05
6.1683766e-08
1.7236783e-07
2.8262639e-05
6.1740501e-08
1.6770093e-07
2.8129394e-05
6.1780657e-08
1.6321521e-07
2.7999461e-05
6.180387e-08
1.5890122e-07
2.7872709e-05
6.18074e-08
1.5475035e-07
2.7749012e-05
6.1793602e-08
1.5075442e-07
2.7628253e-05
6.1764807e-08
1.4690556e-07
2.7510319e-05
6.172099e-08
1.4319658e-07
2.7395105e-05
6.1662114e-08
1.3962085e-07
2.728251e-05
6.1588608e-08
1.3617201e-07
2.7172439e-05
6.1501078e-08
1.3284423e-07
2.7064802e-05
6.1399993e-08
1.2963194e-07
2.6959511e-05
6.1285915e-08
1.2652991e-07
2.6856486e-05
6.1159517e-08
1.2353329e-07
2.6755649e-05
6.1021332e-08
1.2063731e-07
2.6656924e-05
6.0871862e-08
1.1783766e-07
2.6560242e-05
6.0711712e-08
1.1513013e-07
2.6465535e-05
6.0541404e-08
1.1251079e-07
2.6372738e-05
6.0361343e-08
1.0997579e-07
2.6281791e-05
6.0171967e-08
1.075216e-07
2.6192636e-05
5.9973584e-08
1.0514472e-07
2.6105215e-05
5.9766332e-08
1.0284185e-07
2.6019477e-05
5.9550255e-08
1.0060972e-07
2.5935371e-05
5.932515e-08
9.8445271e-08
2.585285e-05
5.9090501e-08
9.6345411e-08
2.5771868e-05
5.8845461e-08
9.4306913e-08
2.5692384e-05
5.8588973e-08
9.2326764e-08
2.5614357e-05
5.8319793e-08
9.0401452e-08
2.5537753e-05
5.8037049e-08
8.8527337e-08
2.5462539e-05
5.7741594e-08
8.6700192e-08
2.5388689e-05
5.7438402e-08
8.4915165e-08
2.5316184e-05
5.7141415e-08
8.3166611e-08
2.5245017e-05
5.6882582e-08
8.1449636e-08
2.51752e-05
5.6726042e-08
7.976583e-08
2.510677e-05
5.6787885e-08
7.8149176e-08
2.5039729e-05
5.7251578e-08
7.6780939e-08
2.4973573e-05
5.8330942e-08
7.6510207e-08
2.4906079e-05
5.9989458e-08
7.9732163e-08
6.0714981e-08
1.1287821e-07
0.00010503672
9.078937e-07
6.5005614e-06
9.9140653e-05
1.6524914e-06
6.6166802e-06
9.3788329e-05
2.0825242e-06
6.1717217e-06
8.8708526e-05
2.2549373e-06
5.91053e-06
8.3909682e-05
2.278404e-06
5.6151748e-06
7.9437109e-05
2.2074821e-06
5.2497564e-06
7.5296201e-05
2.0645348e-06
4.8553893e-06
7.1474034e-05
1.8722543e-06
4.4605969e-06
6.7955013e-05
1.6547667e-06
4.0771269e-06
6.4723621e-05
1.4313505e-06
3.7107669e-06
6.1764423e-05
1.2154297e-06
3.3655007e-06
5.9062056e-05
1.015864e-06
3.0438911e-06
5.6601108e-05
8.3782743e-07
2.7471548e-06
5.4365944e-05
6.8344646e-07
2.475497e-06
5.2340648e-05
5.5258528e-07
2.2284383e-06
5.0509125e-05
4.4366547e-07
2.0050361e-06
4.8855299e-05
3.5433458e-07
1.8040352e-06
4.7363353e-05
2.8193588e-07
1.6239821e-06
4.6017963e-05
2.2381346e-07
1.4633127e-06
4.4804502e-05
1.7749381e-07
1.320418e-06
4.3709199e-05
1.4078091e-07
1.1936935e-06
4.2719248e-05
1.1179155e-07
1.081575e-06
4.1822875e-05
8.8954542e-08
9.8256582e-07
4.1009364e-05
7.0988007e-08
8.9525472e-07
4.0269054e-05
5.6861822e-08
8.183238e-07
3.9593306e-05
4.5719125e-08
7.5058476e-07
3.8974405e-05
3.697789e-08
6.9093437e-07
3.8405585e-05
3.0067388e-08
6.3838632e-07
3.7880869e-05
2.4650834e-08
5.9204241e-07
3.7395029e-05
2.0439987e-08
5.5110605e-07
3.6943514e-05
1.7190272e-08
5.1487712e-07
3.6522366e-05
1.4716752e-08
4.8273956e-07
3.6128148e-05
1.2874784e-08
4.541539e-07
3.5757883e-05
1.1549903e-08
4.2864939e-07
3.5408991e-05
1.065079e-08
4.0581704e-07
3.5079238e-05
1.0103652e-08
3.8530226e-07
3.4766689e-05
9.8482617e-09
3.6679875e-07
3.4469668e-05
9.835094e-09
3.5004233e-07
3.4186716e-05
1.0022904e-08
3.3480551e-07
3.3916567e-05
1.0377038e-08
3.2089288e-07
3.3658116e-05
1.0868085e-08
3.0813659e-07
3.3410395e-05
1.1470958e-08
2.9639285e-07
3.3172556e-05
1.2164211e-08
2.8553826e-07
3.2943852e-05
1.2929289e-08
2.7546719e-07
3.2723625e-05
1.3750132e-08
2.6608894e-07
3.2511286e-05
1.4613067e-08
2.5732574e-07
3.2306316e-05
1.5506232e-08
2.4911069e-07
3.2108246e-05
1.6419589e-08
2.413862e-07
3.1916658e-05
1.7344603e-08
2.3410269e-07
3.1731171e-05
1.8274324e-08
2.2721715e-07
3.1551444e-05
1.9203153e-08
2.2069215e-07
3.1377162e-05
2.0127732e-08
2.1449511e-07
3.1208038e-05
2.1048639e-08
2.085968e-07
3.10438e-05
2.1972753e-08
2.0297054e-07
3.0884232e-05
2.2827821e-08
1.9760739e-07
3.0729103e-05
2.3662975e-08
1.9248229e-07
3.05782e-05
2.4490024e-08
1.8757382e-07
3.0431331e-05
2.5296306e-08
1.8286763e-07
3.0288318e-05
2.6078014e-08
1.7835077e-07
3.0148994e-05
2.6834318e-08
1.7401107e-07
3.0013202e-05
2.7564694e-08
1.6983757e-07
2.9880797e-05
2.8268956e-08
1.6582027e-07
2.975164e-05
2.8947434e-08
1.6195016e-07
2.9625601e-05
2.9600782e-08
1.5821898e-07
2.9502557e-05
3.0228578e-08
1.546192e-07
2.9382396e-05
3.0823601e-08
1.5114464e-07
2.9265007e-05
3.139312e-08
1.4778877e-07
2.9150287e-05
3.193957e-08
1.4454538e-07
2.9038137e-05
3.2461885e-08
1.41409e-07
2.8928465e-05
3.2960053e-08
1.3837462e-07
2.8821181e-05
3.3434705e-08
1.3543749e-07
2.8716203e-05
3.3886373e-08
1.325933e-07
2.8613449e-05
3.4315572e-08
1.2983785e-07
2.8512845e-05
3.4722895e-08
1.2716735e-07
2.8414317e-05
3.5109007e-08
1.2457815e-07
2.8317797e-05
3.5474468e-08
1.2206681e-07
2.8223219e-05
3.5819913e-08
1.1963007e-07
2.813052e-05
3.6145957e-08
1.1726493e-07
2.803964e-05
3.6453099e-08
1.1496838e-07
2.7950522e-05
3.6741907e-08
1.1273774e-07
2.7863111e-05
3.7012805e-08
1.1057027e-07
2.7777354e-05
3.7266267e-08
1.0846343e-07
2.7693204e-05
3.7502487e-08
1.0641476e-07
2.7610611e-05
3.7721596e-08
1.0442173e-07
2.752953e-05
3.792358e-08
1.0248201e-07
2.744992e-05
3.8108028e-08
1.0059309e-07
2.7371738e-05
3.8274287e-08
9.8752312e-08
2.7294949e-05
3.8421547e-08
9.6956908e-08
2.7219516e-05
3.8548718e-08
9.5203633e-08
2.714541e-05
3.8655134e-08
9.3488624e-08
2.7072603e-05
3.8741133e-08
9.1806965e-08
2.7001079e-05
3.881025e-08
9.0152334e-08
2.6930832e-05
3.887215e-08
8.8516567e-08
2.6861876e-05
3.8947405e-08
8.6890533e-08
2.679426e-05
3.9073545e-08
8.526921e-08
2.6728065e-05
3.930693e-08
8.3675956e-08
2.6663337e-05
3.970834e-08
8.2271162e-08
2.659956e-05
4.0271999e-08
8.1836174e-08
2.6534295e-05
4.0698046e-08
8.4555737e-08
3.9620841e-08
1.1507131e-07
0.00010494757
5.6811081e-07
6.5033076e-06
9.8925416e-05
1.0462983e-06
6.6283517e-06
9.3480449e-05
1.3439844e-06
6.1835065e-06
8.8341777e-05
1.4751324e-06
5.9184763e-06
8.3502084e-05
1.4993911e-06
5.6187065e-06
7.9004057e-05
1.4572411e-06
5.2482679e-06
7.4853978e-05
1.3667382e-06
4.8478757e-06
7.1037378e-05
1.2423973e-06
4.4464569e-06
6.7536063e-05
1.0997693e-06
4.0563128e-06
6.4331998e-05
9.519236e-07
3.683491e-06
6.1407318e-05
8.0805757e-07
3.3320524e-06
5.8744339e-05
6.7422205e-07
3.0046209e-06
5.6325632e-05
5.5404397e-07
2.7024907e-06
5.4133973e-05
4.4916748e-07
2.4259383e-06
5.2152298e-05
3.5972401e-07
2.174536e-06
5.0363747e-05
2.8484513e-07
1.9473718e-06
4.875178e-05
2.2310006e-07
1.7432015e-06
4.7300339e-05
1.7281168e-07
1.5605647e-06
4.5994012e-05
1.3226575e-07
1.3978748e-06
4.4818177e-05
9.9840039e-08
1.2534891e-06
4.3759121e-05
7.4075593e-08
1.1257614e-06
4.2804123e-05
5.3707664e-08
1.0130814e-06
4.1941503e-05
3.767124e-08
9.1390376e-07
4.1160627e-05
2.5096478e-08
8.2676732e-07
4.0451891e-05
1.5294192e-08
7.5030388e-07
3.980679e-05
7.5281684e-09
6.8329175e-07
3.9217543e-05
1.6727457e-09
6.2455201e-07
3.8677513e-05
-3.0331235e-09
5.7313078e-07
3.8180739e-05
-6.6486673e-09
5.2807354e-07
3.7722004e-05
-9.3595197e-09
4.8853447e-07
3.7296777e-05
-1.1371792e-08
4.5378927e-07
3.6901112e-05
-1.281823e-08
4.2319912e-07
3.6531588e-05
-1.3805282e-08
3.962048e-07
3.6185236e-05
-1.441747e-08
3.7231873e-07
3.5859491e-05
-1.4721864e-08
3.5111775e-07
3.5552132e-05
-1.4772639e-08
3.322358e-07
3.5261237e-05
-1.4613893e-08
3.153573e-07
3.4985143e-05
-1.4282164e-08
3.002109e-07
3.472241e-05
-1.3807698e-08
2.8656373e-07
3.4471787e-05
-1.3215898e-08
2.7421631e-07
3.4232185e-05
-1.2528196e-08
2.6299771e-07
3.4002657e-05
-1.1762805e-08
2.5276177e-07
3.3782373e-05
-1.0935259e-08
2.4338338e-07
3.3570606e-05
-1.005876e-08
2.3475557e-07
3.3366714e-05
-9.1447312e-09
2.2678674e-07
3.3170131e-05
-8.2028128e-09
2.1939833e-07
3.2980356e-05
-7.2412234e-09
2.12523e-07
3.279694e-05
-6.2669074e-09
2.0610282e-07
3.2619482e-05
-5.2855523e-09
2.0008783e-07
3.2447623e-05
-4.3018341e-09
1.944348e-07
3.228104e-05
-3.3190704e-09
1.8910585e-07
3.2119438e-05
-2.3383348e-09
1.8406732e-07
3.1962554e-05
-1.3530388e-09
1.7928644e-07
3.1810075e-05
-2.7632287e-10
1.7472765e-07
3.1661878e-05
5.8583902e-10
1.7043908e-07
3.1517732e-05
1.4356281e-09
1.6637294e-07
3.1377429e-05
2.303829e-09
1.624896e-07
3.1240792e-05
3.1586462e-09
1.5877481e-07
3.1107656e-05
3.9969922e-09
1.5521718e-07
3.0977867e-05
4.8171724e-09
1.5180548e-07
3.0851284e-05
5.6180036e-09
1.485297e-07
3.0727774e-05
6.3990832e-09
1.4538077e-07
3.0607209e-05
7.160929e-09
1.4235051e-07
3.0489473e-05
7.9059338e-09
1.3943121e-07
3.037445e-05
8.6357614e-09
1.3661577e-07
3.0262049e-05
9.3206397e-09
1.3390396e-07
3.0152163e-05
9.9937868e-09
1.3128567e-07
3.0044697e-05
1.0650356e-08
1.2875511e-07
2.9939564e-05
1.1286735e-08
1.2630824e-07
2.983668e-05
1.1903218e-08
1.2394085e-07
2.9735965e-05
1.2500174e-08
1.2164884e-07
2.9637345e-05
1.3077871e-08
1.1942841e-07
2.9540748e-05
1.3636699e-08
1.1727616e-07
2.9446105e-05
1.4177041e-08
1.1518882e-07
2.9353352e-05
1.4699177e-08
1.1316341e-07
2.9262425e-05
1.5203567e-08
1.1119704e-07
2.9173268e-05
1.5690507e-08
1.0928707e-07
2.9085822e-05
1.6160406e-08
1.0743108e-07
2.9000035e-05
1.6613592e-08
1.0562662e-07
2.8915855e-05
1.7050404e-08
1.0387153e-07
2.8833233e-05
1.7471115e-08
1.0216359e-07
2.8752123e-05
1.7875984e-08
1.0050082e-07
2.8672479e-05
1.8265118e-08
9.8881102e-08
2.8594259e-05
1.8638549e-08
9.7302478e-08
2.8517424e-05
1.8996222e-08
9.576295e-08
2.8441934e-05
1.9337794e-08
9.4260329e-08
2.8367753e-05
1.9662786e-08
9.2792356e-08
2.8294848e-05
1.9970445e-08
9.1356283e-08
2.8223187e-05
2.0259989e-08
8.9948864e-08
2.8152746e-05
2.0530697e-08
8.856592e-08
2.8083503e-05
2.07826e-08
8.7201794e-08
2.8015447e-05
2.1017531e-08
8.5848685e-08
2.7948582e-05
2.1240713e-08
8.4495823e-08
2.7882937e-05
2.1462727e-08
8.3129496e-08
2.7818574e-05
2.1699951e-08
8.173652e-08
2.7755588e-05
2.1969264e-08
8.032434e-08
2.7694014e-05
2.2266158e-08
7.9016097e-08
2.7633299e-05
2.2506265e-08
7.8480643e-08
2.7571004e-05
2.2393402e-08
8.0599463e-08
2.0993065e-08
1.0779947e-07
0.00010489986
2.7443375e-07
6.5049155e-06
9.8802772e-05
5.0716633e-07
6.6362236e-06
9.329591e-05
6.5854976e-07
6.1922972e-06
8.8116302e-05
7.2902546e-07
5.9257148e-06
8.3248198e-05