/*--------------------------------*- C++ -*----------------------------------*\
  =========                 |
  \\      /  F ield         | OpenFOAM: The Open Source CFD Toolbox
   \\    /   O peration     | Website:  https://openfoam.org
    \\  /    A nd           | Version:  7
     \\/     M anipulation  |
\*---------------------------------------------------------------------------*/
FoamFile
{
    version     2.0;
    format      ascii;
    class       volVectorField;
    location    "1100/water";
    object      U;
}
// * * * * * * * * * * * * * * * * * * * * * * * * * * * * * * * * * * * * * //

dimensions      [0 1 -1 0 0 0 0];

internalField   nonuniform List<vector> 
54000
(
(0.0090020934 0.00020305973 0.00020444027)
(0.0083186447 0.00023622738 0.00023904411)
(0.0073695241 0.00021363852 0.00021763527)
(0.0063566114 0.00018488016 0.00018965819)
(0.0054486673 0.00015530836 0.00016048632)
(0.0046741594 0.00012529952 0.00013052937)
(0.0040193038 9.7052611e-05 0.00010203017)
(0.0034740067 7.2578998e-05 7.7073287e-05)
(0.0030302461 5.2876126e-05 5.6738328e-05)
(0.0026757323 3.806815e-05 4.1216513e-05)
(0.0023947254 2.7637704e-05 3.003714e-05)
(0.0021713898 2.0689035e-05 2.2336508e-05)
(0.0019919695 1.6236162e-05 1.7152703e-05)
(0.0018455015 1.3416236e-05 1.3643173e-05)
(0.0017237326 1.1582488e-05 1.1179123e-05)
(0.0016206928 1.0304892e-05 9.3455823e-06)
(0.0015321593 9.3257918e-06 7.8957157e-06)
(0.0014551546 8.5052965e-06 6.6953103e-06)
(0.0013875459 7.7746332e-06 5.6760574e-06)
(0.0013277612 7.1034283e-06 4.8034865e-06)
(0.001274601 6.47985e-06 4.0581575e-06)
(0.0012271179 5.8999455e-06 3.4261589e-06)
(0.0011845424 5.3625305e-06 2.8950725e-06)
(0.001146235 4.8670213e-06 2.4526305e-06)
(0.0011116558 4.4125997e-06 2.0869764e-06)
(0.0010803434 3.9980132e-06 1.7867454e-06)
(0.0010519002 3.6214593e-06 1.5416135e-06)
(0.0010259819 3.2805932e-06 1.3421857e-06)
(0.001002289 2.9733953e-06 1.179731e-06)
(0.00098056199 2.6979501e-06 1.0463201e-06)
(0.00096057571 2.4519214e-06 9.3658874e-07)
(0.00094213242 2.2325667e-06 8.4693284e-07)
(0.00092505791 2.0373871e-06 7.7316632e-07)
(0.00090920047 1.8640894e-06 7.118417e-07)
(0.00089442818 1.7104626e-06 6.6046764e-07)
(0.0008806259 1.5743829e-06 6.1707426e-07)
(0.00086769295 1.4538609e-06 5.8005376e-07)
(0.00085554128 1.3470709e-06 5.4811514e-07)
(0.00084409387 1.2523498e-06 5.2024e-07)
(0.00083328322 1.1681987e-06 4.9562805e-07)
(0.00082305015 1.0932618e-06 4.7365329e-07)
(0.00081334267 1.02623e-06 4.5378221e-07)
(0.00080411486 9.6585857e-07 4.3554451e-07)
(0.00079532615 9.1131001e-07 4.1865069e-07)
(0.0007869407 8.6191628e-07 4.0290679e-07)
(0.00077892675 8.1708292e-07 3.8816868e-07)
(0.00077125603 7.7627644e-07 3.7432098e-07)
(0.0007639033 7.3902611e-07 3.6127671e-07)
(0.00075684598 7.0491474e-07 3.489639e-07)
(0.00075006373 6.735756e-07 3.3733184e-07)
(0.00074353822 6.4469431e-07 3.2633681e-07)
(0.00073725294 6.1802615e-07 3.158182e-07)
(0.00073119314 5.9334895e-07 3.0574346e-07)
(0.00072534528 5.7041903e-07 2.9621112e-07)
(0.00071969687 5.4902536e-07 2.871658e-07)
(0.00071423653 5.2901401e-07 2.7854323e-07)
(0.00070895386 5.1027407e-07 2.7031136e-07)
(0.00070383928 4.9268742e-07 2.6244838e-07)
(0.00069888397 4.7614524e-07 2.5493213e-07)
(0.00069407976 4.6055042e-07 2.4774351e-07)
(0.00068941911 4.4582078e-07 2.4086316e-07)
(0.00068489502 4.3188575e-07 2.3427635e-07)
(0.00068050098 4.1867905e-07 2.279645e-07)
(0.00067623091 4.0614633e-07 2.2191266e-07)
(0.00067207916 3.9423468e-07 2.1610524e-07)
(0.00066804043 3.8289712e-07 2.1053118e-07)
(0.00066410976 3.7209444e-07 2.0517756e-07)
(0.00066028251 3.6179364e-07 2.0003191e-07)
(0.0006565543 3.5196212e-07 1.9508257e-07)
(0.00065292099 3.4256886e-07 1.903174e-07)
(0.00064937872 3.3358582e-07 1.8572806e-07)
(0.00064592384 3.2498756e-07 1.8130573e-07)
(0.00064255289 3.1675135e-07 1.7704019e-07)
(0.00063926261 3.0885644e-07 1.7292518e-07)
(0.00063604993 3.0128246e-07 1.689518e-07)
(0.00063291192 2.9401326e-07 1.6511068e-07)
(0.00062984583 2.8703118e-07 1.6139814e-07)
(0.00062684904 2.8032173e-07 1.5780445e-07)
(0.00062391908 2.7387139e-07 1.5432113e-07)
(0.00062105359 2.6766632e-07 1.5094229e-07)
(0.00061825035 2.6169495e-07 1.4766149e-07)
(0.00061550727 2.5594473e-07 1.4446993e-07)
(0.00061282235 2.5040608e-07 1.413593e-07)
(0.00061019373 2.4506819e-07 1.38324e-07)
(0.00060761965 2.3991856e-07 1.3535607e-07)
(0.00060509846 2.3494576e-07 1.3244885e-07)
(0.00060262863 2.3013502e-07 1.2959852e-07)
(0.00060020873 2.2546941e-07 1.268041e-07)
(0.00059783744 2.2093222e-07 1.240755e-07)
(0.00059551348 2.1649875e-07 1.2143414e-07)
(0.00059323555 2.1214993e-07 1.189291e-07)
(0.00059100214 2.0787268e-07 1.1666227e-07)
(0.00058881114 2.0369076e-07 1.148305e-07)
(0.00058665898 1.9973164e-07 1.1382027e-07)
(0.00058453869 1.963835e-07 1.144104e-07)
(0.00058243501 1.9487271e-07 1.1837363e-07)
(0.00058031396 1.9977482e-07 1.3094422e-07)
(0.0005781161 2.2258517e-07 1.639762e-07)
(0.00057566369 1.9706909e-07 1.5080633e-07)
(0.000569062 7.8896402e-07 7.5322623e-07)
(0.0095316863 0.0003313754 0.00022336697)
(0.0092716504 0.00041105943 0.00027052342)
(0.0087756651 0.00040317187 0.00026060062)
(0.0081527518 0.00038218754 0.00024252081)
(0.0075302151 0.00035309575 0.00022101125)
(0.0069425889 0.00031541063 0.00019648834)
(0.006391209 0.00027309198 0.00017102969)
(0.0058791845 0.00023030693 0.00014652546)
(0.0054120202 0.00019001854 0.00012410997)
(0.0049926512 0.00015423459 0.00010436627)
(0.004620592 0.00012408347 8.7479017e-05)
(0.0042931332 9.9809403e-05 7.3327495e-05)
(0.0040063965 8.0956425e-05 6.1601503e-05)
(0.0037559538 6.6672209e-05 5.1918794e-05)
(0.0035372541 5.5985799e-05 4.3907446e-05)
(0.003345947 4.7992056e-05 3.7246646e-05)
(0.0031780884 4.1941711e-05 3.1677529e-05)
(0.0030302311 3.7262446e-05 2.6997921e-05)
(0.0028994324 3.3540995e-05 2.3051137e-05)
(0.0027832152 3.0490243e-05 1.9714592e-05)
(0.0026795075 2.7915735e-05 1.6890543e-05)
(0.0025865783 2.5687842e-05 1.4499383e-05)
(0.002502978 2.3720893e-05 1.2475015e-05)
(0.0024274871 2.1958431e-05 1.0761725e-05)
(0.0023590736 2.0362993e-05 9.3122315e-06)
(0.0022968589 1.8909454e-05 8.0861285e-06)
(0.0022400906 1.7580767e-05 7.0489629e-06)
(0.0021881216 1.6364898e-05 6.1714973e-06)
(0.0021403932 1.5251963e-05 5.4283141e-06)
(0.0020964214 1.423385e-05 4.7973499e-06)
(0.0020557868 1.3303041e-05 4.2604815e-06)
(0.0020181236 1.2451986e-05 3.8027031e-06)
(0.0019831119 1.1673909e-05 3.4109604e-06)
(0.0019504718 1.0962756e-05 3.0744203e-06)
(0.0019199589 1.0312853e-05 2.7842599e-06)
(0.0018913593 9.7188332e-06 2.53318e-06)
(0.0018644851 9.1756437e-06 2.3150747e-06)
(0.0018391716 8.6785719e-06 2.1248315e-06)
(0.0018152735 8.223243e-06 1.9581842e-06)
(0.001792663 7.8056205e-06 1.8115676e-06)
(0.0017712268 7.4219991e-06 1.6820113e-06)
(0.001750865 7.0689385e-06 1.56707e-06)
(0.0017314886 6.7432685e-06 1.4647425e-06)
(0.0017130186 6.4422714e-06 1.373276e-06)
(0.0016953848 6.1635547e-06 1.2911598e-06)
(0.0016785241 5.9049772e-06 1.2171202e-06)
(0.00166238 5.6646084e-06 1.150084e-06)
(0.0016469019 5.4407248e-06 1.0891485e-06)
(0.001632044 5.2317776e-06 1.0335526e-06)
(0.0016177648 5.0363842e-06 9.8265441e-07)
(0.0016040271 4.8533225e-06 9.3589451e-07)
(0.0015907965 4.6815627e-06 8.9273606e-07)
(0.0015780424 4.520158e-06 8.5278608e-07)
(0.0015657364 4.3681528e-06 8.1576966e-07)
(0.0015538526 4.2246826e-06 7.8138476e-07)
(0.0015423672 4.0890594e-06 7.4934522e-07)
(0.0015312583 3.9607292e-06 7.1941313e-07)
(0.0015205058 3.8391525e-06 6.9138823e-07)
(0.0015100909 3.7238133e-06 6.650935e-07)
(0.0014999963 3.6142442e-06 6.4037928e-07)
(0.0014902061 3.5100292e-06 6.1710859e-07)
(0.0014807053 3.4107987e-06 5.9515996e-07)
(0.00147148 3.3162119e-06 5.7442738e-07)
(0.0014625175 3.2259593e-06 5.5481498e-07)
(0.0014538055 3.1397551e-06 5.3623506e-07)
(0.0014453328 3.0573354e-06 5.1861402e-07)
(0.0014370889 2.9784705e-06 5.0187815e-07)
(0.0014290637 2.9029582e-06 4.859675e-07)
(0.001421248 2.8306019e-06 4.7082342e-07)
(0.001413633 2.7612175e-06 4.5639282e-07)
(0.0014062104 2.6946333e-06 4.42628e-07)
(0.0013989723 2.6306895e-06 4.2948723e-07)
(0.0013919116 2.5692439e-06 4.1693009e-07)
(0.0013850212 2.5101631e-06 4.0492048e-07)
(0.0013782945 2.4533192e-06 3.9342459e-07)
(0.0013717253 2.3985961e-06 3.8241115e-07)
(0.0013653078 2.3458844e-06 3.7185147e-07)
(0.0013590364 2.2950862e-06 3.6171847e-07)
(0.0013529058 2.2461055e-06 3.5198408e-07)
(0.001346911 2.1988529e-06 3.4262561e-07)
(0.0013410472 2.1532421e-06 3.3362035e-07)
(0.0013353099 2.1091962e-06 3.2494618e-07)
(0.001329695 2.0666365e-06 3.1657947e-07)
(0.0013241983 2.0254873e-06 3.085004e-07)
(0.001318816 1.9856718e-06 3.0069043e-07)
(0.0013135446 1.9471136e-06 2.9313041e-07)
(0.0013083808 1.9097268e-06 2.858048e-07)
(0.0013033213 1.8734239e-06 2.7870202e-07)
(0.0012983632 1.8381158e-06 2.7181592e-07)
(0.0012935038 1.8037144e-06 2.6515444e-07)
(0.0012887402 1.7701716e-06 2.5874253e-07)
(0.0012840698 1.7375349e-06 2.5265074e-07)
(0.0012794889 1.7061221e-06 2.4701407e-07)
(0.0012749925 1.6769103e-06 2.4211441e-07)
(0.001270572 1.652467e-06 2.3851815e-07)
(0.0012662098 1.6393332e-06 2.3765949e-07)
(0.0012618709 1.654577e-06 2.4458231e-07)
(0.0012574959 1.7463719e-06 2.7712381e-07)
(0.0012529717 2.0376712e-06 2.652643e-07)
(0.0012433358 2.9514826e-06 1.3525335e-06)
(0.0095221617 0.00021179965 0.00022180581)
(0.009269783 0.00029872516 0.00026628967)
(0.0088657772 0.00031669844 0.00025526743)
(0.0083755729 0.000317438 0.00023864265)
(0.0078888426 0.00030841043 0.00021987851)
(0.0074276349 0.00028848207 0.00019850458)
(0.006988258 0.00026048391 0.00017617916)
(0.0065698164 0.00022855168 0.00015444521)
(0.0061756011 0.00019596771 0.00013413534)
(0.0058087146 0.00016504408 0.00011567593)
(0.0054706295 0.00013728621 9.9270838e-05)
(0.0051615551 0.00011345265 8.4947831e-05)
(0.0048808654 9.3684507e-05 7.2600737e-05)
(0.0046272998 7.7712986e-05 6.2044902e-05)
(0.0043991196 6.5057026e-05 5.3064544e-05)
(0.0041942886 5.5163888e-05 4.544363e-05)
(0.0040106431 4.7493346e-05 3.8982753e-05)
(0.0038460219 4.1561376e-05 3.3506381e-05)
(0.0036983537 3.6958192e-05 2.8864073e-05)
(0.0035657105 3.3351174e-05 2.4928487e-05)
(0.0034463343 3.0479503e-05 2.1592134e-05)
(0.003338646 2.814477e-05 1.8764098e-05)
(0.003241243 2.6200156e-05 1.6367138e-05)
(0.0031528887 2.4539753e-05 1.4335368e-05)
(0.0030724986 2.3088866e-05 1.2612488e-05)
(0.0029991252 2.1796112e-05 1.1150134e-05)
(0.0029319421 2.0626904e-05 9.9064815e-06)
(0.0028702292 1.9558163e-05 8.8458152e-06)
(0.0028133589 1.8574036e-05 7.9385379e-06)
(0.0027607855 1.7663622e-05 7.1598224e-06)
(0.0027120345 1.6818833e-05 6.489035e-06)
(0.0026666927 1.6033067e-05 5.9090206e-06)
(0.0026243991 1.5301095e-05 5.4052731e-06)
(0.0025848383 1.4618819e-05 4.9656523e-06)
(0.0025477347 1.3982712e-05 4.580114e-06)
(0.0025128472 1.3389543e-05 4.2403275e-06)
(0.002479964 1.283628e-05 3.9393568e-06)
(0.0024488994 1.2320058e-05 3.6714255e-06)
(0.0024194896 1.1838144e-05 3.4317268e-06)
(0.00239159 1.1387939e-05 3.2162516e-06)
(0.0023650729 1.0966986e-05 3.0216601e-06)
(0.0023398248 1.0573e-05 2.8451731e-06)
(0.0023157449 1.0203874e-05 2.6844742e-06)
(0.0022927433 9.8575804e-06 2.5375951e-06)
(0.0022707398 9.5322138e-06 2.4028642e-06)
(0.002249662 9.226028e-06 2.2788663e-06)
(0.0022294453 8.9374181e-06 2.1644008e-06)
(0.0022100312 8.6649287e-06 2.0584384e-06)
(0.0021913666 8.407238e-06 1.9601013e-06)
(0.0021734038 8.1631529e-06 1.8686315e-06)
(0.0021560989 7.931621e-06 1.783367e-06)
(0.0021394122 7.7117235e-06 1.7037081e-06)
(0.0021233074 7.5026013e-06 1.6291513e-06)
(0.0021077512 7.3033783e-06 1.5592835e-06)
(0.0020927129 7.1131863e-06 1.4937197e-06)
(0.0020781645 6.9314161e-06 1.4321047e-06)
(0.0020640799 6.7576057e-06 1.3741141e-06)
(0.0020504351 6.5912618e-06 1.3194611e-06)
(0.0020372075 6.4318797e-06 1.2678951e-06)
(0.0020243766 6.2790071e-06 1.2191865e-06)
(0.0020119231 6.1322398e-06 1.1731319e-06)
(0.001999829 5.9912193e-06 1.1295432e-06)
(0.0019880776 5.8556111e-06 1.0882499e-06)
(0.0019766531 5.7251055e-06 1.0490944e-06)
(0.0019655411 5.5994093e-06 1.0119375e-06)
(0.0019547276 5.4782462e-06 9.7664704e-07)
(0.0019441999 5.3613909e-06 9.4310096e-07)
(0.0019339458 5.248649e-06 9.1118944e-07)
(0.0019239539 5.1398182e-06 8.8080749e-07)
(0.0019142135 5.0347024e-06 8.5186103e-07)
(0.0019047144 4.9331196e-06 8.2425996e-07)
(0.001895447 4.8348995e-06 7.9792594e-07)
(0.0018864023 4.7398883e-06 7.7278032e-07)
(0.0018775718 4.6479433e-06 7.4875616e-07)
(0.0018689473 4.5589238e-06 7.2578699e-07)
(0.0018605211 4.4727017e-06 7.0381337e-07)
(0.0018522861 4.3891521e-06 6.8277726e-07)
(0.0018442353 4.3081692e-06 6.6262627e-07)
(0.0018363621 4.2296394e-06 6.4330829e-07)
(0.0018286604 4.15346e-06 6.2477645e-07)
(0.0018211241 4.0795283e-06 6.0698828e-07)
(0.0018137478 4.0077545e-06 5.8990032e-07)
(0.0018065261 3.9380376e-06 5.7347216e-07)
(0.001799454 3.8702801e-06 5.5766734e-07)
(0.0017925266 3.8043815e-06 5.4244752e-07)
(0.0017857396 3.7402363e-06 5.2777965e-07)
(0.0017790885 3.6777264e-06 5.1362928e-07)
(0.0017725695 3.6167265e-06 4.9996946e-07)
(0.0017661787 3.5571079e-06 4.8677524e-07)
(0.0017599128 3.4987605e-06 4.7402562e-07)
(0.0017537682 3.4416545e-06 4.6171046e-07)
(0.0017477416 3.3859655e-06 4.4983546e-07)
(0.0017418294 3.3323842e-06 4.384434e-07)
(0.0017360272 3.2827922e-06 4.276465e-07)
(0.0017303281 3.2417782e-06 4.1776823e-07)
(0.0017247202 3.2200415e-06 4.0999033e-07)
(0.001719183 3.2421563e-06 4.0984904e-07)
(0.001713691 3.3643435e-06 4.4114314e-07)
(0.0017081999 3.7072188e-06 4.7353407e-07)
(0.0016974804 4.4611211e-06 1.863499e-06)
(0.0095012861 0.00013951169 0.00022248511)
(0.0092133349 0.00022408324 0.00026709763)
(0.0088018509 0.0002570094 0.00025529581)
(0.0083306071 0.00026690691 0.0002382081)
(0.0078754299 0.00026502159 0.00021939837)
(0.0074527063 0.00025295651 0.00019823245)
(0.0070564396 0.00023295893 0.00017634609)
(0.0066827538 0.00020836345 0.0001552305)
(0.006331873 0.00018203353 0.00013558338)
(0.0060047052 0.00015603739 0.00011769036)
(0.0057015056 0.00013180401 0.00010166909)
(0.0054220192 0.00011020725 8.7524314e-05)
(0.0051656909 9.16319e-05 7.5171986e-05)
(0.0049316845 7.6091185e-05 6.4472618e-05)
(0.0047188814 6.3363142e-05 5.526115e-05)
(0.0045259349 5.3104941e-05 4.7366821e-05)
(0.0043513547 4.4932756e-05 4.06249e-05)
(0.0041935865 3.8471358e-05 3.4883032e-05)
(0.0040510752 3.3381245e-05 3.0003995e-05)
(0.0039223115 2.9370508e-05 2.5866181e-05)
(0.0038058643 2.6197263e-05 2.2362867e-05)
(0.0037004012 2.3666733e-05 1.9400962e-05)
(0.0036047 2.1625759e-05 1.6899611e-05)
(0.0035176529 1.9956328e-05 1.4788823e-05)
(0.0034382652 1.8569048e-05 1.3008105e-05)
(0.0033656513 1.7397362e-05 1.1504745e-05)
(0.0032990266 1.6392003e-05 1.0233524e-05)
(0.0032376995 1.5516242e-05 9.1565344e-06)
(0.0031810636 1.4743887e-05 8.2421112e-06)
(0.0031285885 1.4056151e-05 7.4635746e-06)
(0.0030798115 1.3438894e-05 6.7985198e-06)
(0.0030343294 1.2881151e-05 6.2282227e-06)
(0.0029917905 1.2374495e-05 5.7369829e-06)
(0.0029518882 1.191242e-05 5.3116658e-06)
(0.0029143553 1.1489691e-05 4.9413537e-06)
(0.0028789586 1.1101929e-05 4.6170003e-06)
(0.0028454946 1.0745379e-05 4.3311226e-06)
(0.0028137847 1.0416775e-05 4.0775275e-06)
(0.0027836727 1.0113218e-05 3.8511082e-06)
(0.0027550209 9.8321212e-06 3.6476459e-06)
(0.0027277081 9.5711599e-06 3.4636643e-06)
(0.002701627 9.3282502e-06 3.296301e-06)
(0.0026766823 9.1015147e-06 3.1431917e-06)
(0.0026527895 8.889244e-06 3.002383e-06)
(0.0026298729 8.6898914e-06 2.8722567e-06)
(0.0026078647 8.5020889e-06 2.7514721e-06)
(0.002586704 8.3246163e-06 2.6389102e-06)
(0.0025663358 8.1563963e-06 2.5336416e-06)
(0.0025467102 7.9964769e-06 2.4348846e-06)
(0.002527782 7.844025e-06 2.3419789e-06)
(0.0025095101 7.6983362e-06 2.2543609e-06)
(0.0024918566 7.5588101e-06 2.1715444e-06)
(0.0024747871 7.4248976e-06 2.0931115e-06)
(0.0024582699 7.2960203e-06 2.0187195e-06)
(0.0024422756 7.1714372e-06 1.9480692e-06)
(0.0024267775 7.0509291e-06 1.8808987e-06)
(0.0024117506 6.9343768e-06 1.816952e-06)
(0.0023971715 6.8214899e-06 1.7560022e-06)
(0.0023830185 6.7119568e-06 1.6978523e-06)
(0.0023692714 6.6055386e-06 1.6423282e-06)
(0.0023559116 6.5020435e-06 1.5892723e-06)
(0.0023429214 6.4013071e-06 1.5385381e-06)
(0.0023302844 6.3031795e-06 1.4899941e-06)
(0.0023179851 6.207526e-06 1.4435164e-06)
(0.0023060089 6.1142052e-06 1.3989939e-06)
(0.0022943424 6.0230695e-06 1.3563249e-06)
(0.0022829727 5.9340591e-06 1.3154159e-06)
(0.0022718877 5.8471291e-06 1.2761703e-06)
(0.002261076 5.7622046e-06 1.2385024e-06)
(0.0022505267 5.6791991e-06 1.2023311e-06)
(0.0022402296 5.5980434e-06 1.1675821e-06)
(0.0022301752 5.5186735e-06 1.1341882e-06)
(0.0022203542 5.4410299e-06 1.1020808e-06)
(0.002210758 5.365063e-06 1.071199e-06)
(0.0022013784 5.2907169e-06 1.0414843e-06)
(0.0021922076 5.2179495e-06 1.0128807e-06)
(0.0021832381 5.1467089e-06 9.8533793e-07)
(0.0021744629 5.0769579e-06 9.588031e-07)
(0.0021658752 5.0086507e-06 9.3323139e-07)
(0.0021574688 4.9417451e-06 9.0857398e-07)
(0.0021492375 4.8761986e-06 8.8479214e-07)
(0.0021411756 4.8119667e-06 8.6183937e-07)
(0.0021332776 4.749e-06 8.3967905e-07)
(0.0021255383 4.6872407e-06 8.1827098e-07)
(0.0021179527 4.6266211e-06 7.9757761e-07)
(0.0021105161 4.5670666e-06 7.7756094e-07)
(0.0021032242 4.5084806e-06 7.5818397e-07)
(0.0020960727 4.4507553e-06 7.3941156e-07)
(0.0020890577 4.3937751e-06 7.2120322e-07)
(0.0020821756 4.3374542e-06 7.0352112e-07)
(0.002075423 4.2818101e-06 6.8632242e-07)
(0.0020687967 4.2271335e-06 6.6956139e-07)
(0.0020622937 4.1743558e-06 6.5320298e-07)
(0.002055911 4.1258146e-06 6.3726241e-07)
(0.0020496453 4.0868297e-06 6.2198554e-07)
(0.0020434926 4.0687776e-06 6.0874743e-07)
(0.0020374483 4.0948775e-06 6.0452024e-07)
(0.0020315149 4.2094245e-06 6.3987761e-07)
(0.0020256647 4.4797473e-06 7.1688465e-07)
(0.0020144539 4.9057768e-06 2.2695245e-06)
(0.0094902877 9.6726608e-05 0.00022289229)
(0.00917661 0.00016632333 0.00026788105)
(0.0087449456 0.00019969046 0.00025550648)
(0.0082664657 0.00021101604 0.00023762681)
(0.00781215 0.0002109939 0.0002181603)
(0.0073950862 0.0002028236 0.00019646328)
(0.0070087986 0.00018827265 0.00017418493)
(0.006648835 0.00016968865 0.0001528463)
(0.0063142174 0.00014929331 0.00013312182)
(0.0060045996 0.00012875288 0.0001152379)
(0.0057192201 0.00010923292 9.925679e-05)
(0.0054570682 9.1490071e-05 8.514891e-05)
(0.0052170782 7.59234e-05 7.2816212e-05)
(0.0049981259 6.264333e-05 6.2119134e-05)
(0.0047989841 5.1561152e-05 5.2900048e-05)
(0.0046183234 4.2472278e-05 4.4997976e-05)
(0.0044547458 3.5118725e-05 3.8256897e-05)
(0.0043068267 2.9230542e-05 3.2530442e-05)
(0.0041731526 2.4550834e-05 2.7684339e-05)
(0.0040523509 2.0849111e-05 2.3597361e-05)
(0.0039431142 1.7926913e-05 2.0161345e-05)
(0.0038442168 1.5618601e-05 1.7280681e-05)
(0.0037545253 1.3789365e-05 1.487153e-05)
(0.0036730042 1.2331759e-05 1.2860862e-05)
(0.0035987172 1.116154e-05 1.1185211e-05)
(0.0035308246 1.0213367e-05 9.7889742e-06)
(0.0034685786 9.438083e-06 8.6250724e-06)
(0.0034113173 8.7971283e-06 7.6543145e-06)
(0.0033584589 8.2627211e-06 6.84394e-06)
(0.0033094933 7.8140815e-06 6.1664559e-06)
(0.0032639753 7.4348236e-06 5.5988444e-06)
(0.0032215172 7.1121297e-06 5.1219266e-06)
(0.0031817817 6.8360966e-06 4.7197274e-06)
(0.0031444758 6.5990207e-06 4.3789726e-06)
(0.0031093448 6.3947809e-06 4.0886807e-06)
(0.0030761678 6.2184049e-06 3.8397967e-06)
(0.0030447526 6.0657967e-06 3.624878e-06)
(0.003014932 5.9335277e-06 3.4378174e-06)
(0.0029865602 5.8186981e-06 3.2736178e-06)
(0.0029595097 5.71882e-06 3.1282059e-06)
(0.002933669 5.63175e-06 2.9982616e-06)
(0.00290894 5.5556256e-06 2.8810977e-06)
(0.0028852364 5.4888226e-06 2.7745336e-06)
(0.0028624815 5.4299126e-06 2.6768101e-06)
(0.0028406075 5.3776427e-06 2.5865052e-06)
(0.0028195538 5.3309225e-06 2.5024727e-06)
(0.0027992664 5.2888086e-06 2.4237891e-06)
(0.0027796963 5.2504814e-06 2.3497097e-06)
(0.0027607998 5.215242e-06 2.2796374e-06)
(0.002742537 5.1824967e-06 2.2130846e-06)
(0.0027248717 5.1517654e-06 2.149654e-06)
(0.0027077708 5.1226678e-06 2.0890223e-06)
(0.0026912041 5.094895e-06 2.03092e-06)
(0.0026751435 5.0680844e-06 1.9751363e-06)
(0.0026595636 5.0410643e-06 1.9215397e-06)
(0.0026444411 5.0142595e-06 1.8699668e-06)
(0.002629754 4.9880184e-06 1.8202519e-06)
(0.0026154815 4.9620731e-06 1.7722793e-06)
(0.0026016045 4.9361422e-06 1.7259607e-06)
(0.0025881054 4.9100852e-06 1.681215e-06)
(0.0025749674 4.8838318e-06 1.6379667e-06)
(0.002562175 4.857338e-06 1.5961455e-06)
(0.0025497136 4.8305806e-06 1.5556938e-06)
(0.0025375693 4.8035386e-06 1.5165488e-06)
(0.0025257292 4.7761758e-06 1.4786612e-06)
(0.002514181 4.7483849e-06 1.4419858e-06)
(0.0025029134 4.7202766e-06 1.4064832e-06)
(0.0024919154 4.6919135e-06 1.3721015e-06)
(0.0024811765 4.6632903e-06 1.3387965e-06)
(0.002470687 4.6344021e-06 1.3065291e-06)
(0.0024604377 4.6052679e-06 1.2752602e-06)
(0.0024504197 4.5759101e-06 1.2449544e-06)
(0.0024406247 4.5463468e-06 1.2155767e-06)
(0.0024310448 4.5166012e-06 1.1870931e-06)
(0.0024216723 4.486695e-06 1.1594737e-06)
(0.0024125001 4.4566518e-06 1.1326842e-06)
(0.0024035213 4.426489e-06 1.1066972e-06)
(0.0023947295 4.3962287e-06 1.0814827e-06)
(0.0023861184 4.3658902e-06 1.0570134e-06)
(0.0023776821 4.3354874e-06 1.0332597e-06)
(0.0023694149 4.3050344e-06 1.0101966e-06)
(0.0023613115 4.2745364e-06 9.8779593e-07)
(0.0023533667 4.2439942e-06 9.6603129e-07)
(0.0023455757 4.2133971e-06 9.4487396e-07)
(0.0023379338 4.1827203e-06 9.2429896e-07)
(0.0023304365 4.1519266e-06 9.0427677e-07)
(0.0023230798 4.1209524e-06 8.8477174e-07)
(0.0023158598 4.0897244e-06 8.6575299e-07)
(0.0023087726 4.0581557e-06 8.4717317e-07)
(0.002301815 4.0261901e-06 8.28981e-07)
(0.0022949838 3.9938751e-06 8.1110657e-07)
(0.0022882766 3.9615302e-06 7.9346296e-07)
(0.002281691 3.9300781e-06 7.7594321e-07)
(0.0022752261 3.9016915e-06 7.584781e-07)
(0.002268882 3.8809403e-06 7.4124737e-07)
(0.0022626608 3.8766472e-06 7.2572633e-07)
(0.0022565686 3.9043035e-06 7.1957836e-07)
(0.0022506189 3.9866544e-06 7.5579883e-07)
(0.0022447715 4.1390987e-06 8.4931727e-07)
(0.002233564 4.2832243e-06 2.4122101e-06)
(0.0094843561 6.6886586e-05 0.00022303624)
(0.0091549219 0.00011904886 0.00026838771)
(0.0087072816 0.00014772497 0.00025588053)
(0.0082191888 0.00015892952 0.00023765677)
(0.0077602858 0.00016026049 0.00021787143)
(0.0073412804 0.00015505102 0.00019586613)
(0.0069552494 0.00014481701 0.00017327438)
(0.0065978366 0.00013121474 0.00015165024)
(0.0062677954 0.00011592881 0.00013169211)
(0.0059642872 0.00010028521 0.0001136244)
(0.0056860598 8.521443e-05 9.7497522e-05)
(0.0054316726 7.1330407e-05 8.3272195e-05)
(0.0051997008 5.8984298e-05 7.0844883e-05)
(0.0049887459 4.8311753e-05 6.0073373e-05)
(0.0047973943 3.9291583e-05 5.079889e-05)
(0.0046242055 3.1804354e-05 4.2859903e-05)
(0.0044677269 2.5679087e-05 3.6099808e-05)
(0.0043265179 2.0725784e-05 3.0371291e-05)
(0.0041991724 1.6756344e-05 2.5538702e-05)
(0.004084339 1.3596838e-05 2.1479082e-05)
(0.0039807371 1.1093754e-05 1.8082323e-05)
(0.0038871692 9.1161641e-06 1.5250789e-05)
(0.0038025288 7.5553802e-06 1.2898646e-05)
(0.003725804 6.323135e-06 1.0950986e-05)
(0.0036560786 5.3488194e-06 9.3426777e-06)
(0.0035925304 4.5751813e-06 8.0166138e-06)
(0.0035344253 3.9621006e-06 6.9239488e-06)
(0.0034811131 3.4726274e-06 6.0250733e-06)
(0.0034320221 3.081519e-06 5.2862634e-06)
(0.0033866501 2.7702765e-06 4.6792102e-06)
(0.0033445586 2.5236731e-06 4.1805204e-06)
(0.0033053662 2.3295863e-06 3.7707525e-06)
(0.0032687419 2.1784978e-06 3.4337452e-06)
(0.0032343982 2.062905e-06 3.1561099e-06)
(0.0032020863 1.9768099e-06 2.926797e-06)
(0.0031715907 1.9153179e-06 2.7367028e-06)
(0.0031427248 1.87438e-06 2.5783546e-06)
(0.0031153267 1.8506047e-06 2.4456288e-06)
(0.0030892563 1.8411252e-06 2.3335226e-06)
(0.0030643915 1.843499e-06 2.2379675e-06)
(0.003040626 1.8556451e-06 2.1556635e-06)
(0.0030178671 1.8757789e-06 2.0839523e-06)
(0.0029960335 1.9023792e-06 2.0206941e-06)
(0.0029750538 1.9341325e-06 1.9641819e-06)
(0.0029548648 1.9699135e-06 1.9130529e-06)
(0.0029354109 2.0087609e-06 1.8662277e-06)
(0.0029166424 2.0498579e-06 1.8228531e-06)
(0.0028985148 2.0925085e-06 1.7822568e-06)
(0.0028809886 2.1361363e-06 1.7439143e-06)
(0.0028640277 2.1802706e-06 1.7074105e-06)
(0.0028475999 2.2245505e-06 1.6724143e-06)
(0.0028316758 2.2687598e-06 1.6386563e-06)
(0.0028162284 2.312893e-06 1.6058719e-06)
(0.0028012324 2.3570775e-06 1.5738224e-06)
(0.0027866658 2.3978703e-06 1.543189e-06)
(0.0027725089 2.436235e-06 1.5136873e-06)
(0.0027587418 2.4734412e-06 1.4848888e-06)
(0.002745346 2.5095355e-06 1.4567013e-06)
(0.002732305 2.544352e-06 1.4291166e-06)
(0.0027196032 2.5777733e-06 1.4021115e-06)
(0.0027072261 2.6097246e-06 1.375665e-06)
(0.0026951602 2.640165e-06 1.349757e-06)
(0.0026833928 2.6690889e-06 1.3243756e-06)
(0.0026719116 2.6965035e-06 1.2995097e-06)
(0.0026607054 2.7223729e-06 1.2751525e-06)
(0.0026497635 2.7463567e-06 1.251313e-06)
(0.002639076 2.7689091e-06 1.2279781e-06)
(0.0026286333 2.7901452e-06 1.2051291e-06)
(0.0026184262 2.8099928e-06 1.182761e-06)
(0.0026084461 2.8284311e-06 1.1608707e-06)
(0.0025986849 2.8454921e-06 1.139449e-06)
(0.0025891348 2.8612187e-06 1.1184907e-06)
(0.0025797885 2.8756501e-06 1.097986e-06)
(0.002570639 2.8888299e-06 1.0779284e-06)
(0.0025616795 2.9008065e-06 1.0583093e-06)
(0.0025529038 2.9116209e-06 1.039119e-06)
(0.0025443058 2.9213146e-06 1.0203485e-06)
(0.0025358796 2.9299311e-06 1.00199e-06)
(0.0025276198 2.937508e-06 9.840317e-07)
(0.002519521 2.9440807e-06 9.664656e-07)
(0.0025115783 2.9496813e-06 9.4927898e-07)
(0.0025037869 2.9543389e-06 9.3246154e-07)
(0.0024961421 2.9580689e-06 9.1600062e-07)
(0.0024886396 2.9608812e-06 8.9987961e-07)
(0.0024812752 2.962774e-06 8.8408495e-07)
(0.002474045 2.9637231e-06 8.6859495e-07)
(0.0024669452 2.9636867e-06 8.5338234e-07)
(0.0024599723 2.9626115e-06 8.3841425e-07)
(0.0024531231 2.9604294e-06 8.2364336e-07)
(0.0024463945 2.9570961e-06 8.090037e-07)
(0.0024397839 2.9526498e-06 7.9439906e-07)
(0.0024332895 2.9473502e-06 7.7969457e-07)
(0.0024269099 2.941913e-06 7.6470929e-07)
(0.0024206457 2.9379219e-06 7.4926016e-07)
(0.0024144993 2.9384194e-06 7.3336588e-07)
(0.0024084767 2.9484942e-06 7.1826522e-07)
(0.0024025877 2.9751242e-06 7.1113292e-07)
(0.002396846 3.0234612e-06 7.4331262e-07)
(0.0023911945 3.0808298e-06 8.3046674e-07)
(0.0023803644 3.0574246e-06 2.2999437e-06)
(0.0094810492 4.4090135e-05 0.00022308885)
(0.0091422796 7.9975483e-05 0.00026874495)
(0.0086839084 0.00010160921 0.00025628771)
(0.0081880903 0.00011101591 0.00023793456)
(0.0077246858 0.00011275117 0.00021798622)
(0.0073029895 0.00010953687 0.00019578738)
(0.0069155191 0.00010266029 0.00017296032)
(0.0065579578 9.3267236e-05 0.0001510852)
(0.006229001 8.2539594e-05 0.00013089045)
(0.005927585 7.1446832e-05 0.00011261412)
(0.0056522063 6.0673359e-05 9.6309239e-05)
(0.0054012005 5.0670808e-05 8.1936269e-05)
(0.0051729477 4.1706608e-05 6.9390831e-05)
(0.004965887 3.3898115e-05 5.8529097e-05)
(0.0047784814 2.7249954e-05 4.9189878e-05)
(0.0046092054 2.1693073e-05 4.1208774e-05)
(0.0044565535 1.7117438e-05 3.4426144e-05)
(0.0043190553 1.3395519e-05 2.8691659e-05)
(0.0041952917 1.0397812e-05 2.3866804e-05)
(0.0040839086 8.0023316e-06 1.9826011e-05)
(0.0039836292 6.0997705e-06 1.6456861e-05)
(0.0038932634 4.595663e-06 1.3659716e-05)
(0.0038117126 3.4106739e-06 1.1347012e-05)
(0.0037379734 2.4799298e-06 9.4422915e-06)
(0.0036711359 1.7515119e-06 7.8790892e-06)
(0.0036103859 1.1749047e-06 6.6010326e-06)
(0.0035549935 7.223416e-07 5.5561199e-06)
(0.0035043108 3.7342525e-07 4.7060686e-06)
(0.0034577717 1.0569624e-07 4.0163446e-06)
(0.0034148763 -9.9089772e-08 3.4574129e-06)
(0.0033751872 -2.5333596e-07 3.0054957e-06)
(0.0033383243 -3.663993e-07 2.6409742e-06)
(0.0033039576 -4.4577845e-07 2.3475731e-06)
(0.0032718009 -4.9748336e-07 2.1118257e-06)
(0.0032416065 -5.2634476e-07 1.9226415e-06)
(0.0032131599 -5.3630962e-07 1.7709155e-06)
(0.0031862758 -5.3063955e-07 1.6492033e-06)
(0.0031607936 -5.1206286e-07 1.5514412e-06)
(0.0031365743 -4.8287264e-07 1.4727094e-06)
(0.0031134976 -4.4500776e-07 1.4090332e-06)
(0.0030914586 -4.0011185e-07 1.3572062e-06)
(0.0030703663 -3.4958026e-07 1.3146578e-06)
(0.0030501409 -2.9459663e-07 1.2793313e-06)
(0.0030307129 -2.3616981e-07 1.2495916e-06)
(0.0030120207 -1.751667e-07 1.2241408e-06)
(0.0029940105 -1.1232154e-07 1.201953e-06)
(0.0029766343 -4.8268158e-08 1.1822237e-06)
(0.0029598495 1.6448312e-08 1.1643215e-06)
(0.0029436181 8.1353937e-08 1.1477519e-06)
(0.002927906 1.460242e-07 1.1321248e-06)
(0.0029126825 2.1005752e-07 1.117118e-06)
(0.0028979201 2.7304896e-07 1.1024387e-06)
(0.0028835935 3.3454157e-07 1.0876596e-06)
(0.0028696773 3.9432347e-07 1.0722027e-06)
(0.0028561514 4.5704965e-07 1.0590097e-06)
(0.0028429997 5.2060137e-07 1.0472577e-06)
(0.0028302035 5.8225413e-07 1.0356081e-06)
(0.0028177449 6.4163939e-07 1.0237996e-06)
(0.0028056084 6.9902057e-07 1.0118742e-06)
(0.0027937799 7.5456153e-07 9.9986898e-07)
(0.0027822461 8.083514e-07 9.8781099e-07)
(0.0027709946 8.6046985e-07 9.757186e-07)
(0.0027600137 9.1102634e-07 9.6360169e-07)
(0.0027492926 9.6019553e-07 9.5144705e-07)
(0.0027388207 1.0080073e-06 9.3926657e-07)
(0.0027285887 1.0528503e-06 9.2746516e-07)
(0.0027185878 1.0958659e-06 9.1582948e-07)
(0.0027088089 1.1374986e-06 9.0425265e-07)
(0.0026992438 1.1777668e-06 8.9275769e-07)
(0.0026898847 1.2166571e-06 8.8136495e-07)
(0.0026807244 1.2541701e-06 8.7007985e-07)
(0.0026717559 1.2903142e-06 8.5890622e-07)
(0.0026629726 1.3251076e-06 8.4785239e-07)
(0.0026543682 1.3585746e-06 8.3692282e-07)
(0.0026459367 1.3907413e-06 8.2612259e-07)
(0.0026376723 1.4216372e-06 8.1545396e-07)
(0.0026295698 1.4512908e-06 8.0491967e-07)
(0.0026216238 1.4797338e-06 7.9452319e-07)
(0.0026138294 1.5069921e-06 7.8426245e-07)
(0.002606182 1.5330944e-06 7.7413991e-07)
(0.0025986769 1.5580633e-06 7.6415097e-07)
(0.0025913099 1.5819223e-06 7.5429551e-07)
(0.0025840769 1.6046822e-06 7.445647e-07)
(0.0025769739 1.6263491e-06 7.3495202e-07)
(0.0025699972 1.6469222e-06 7.2544789e-07)