/*--------------------------------*- C++ -*----------------------------------*\
| =========                 |                                                 |
| \\      /  F ield         | OpenFOAM: The Open Source CFD Toolbox           |
|  \\    /   O peration     | Version:  v1912                                 |
|   \\  /    A nd           | Website:  www.openfoam.com                      |
|    \\/     M anipulation  |                                                 |
\*---------------------------------------------------------------------------*/
FoamFile
{
    version     2.0;
    format      ascii;
    class       volScalarField;
    location    "0.5/air";
    object      heatTransferCoeff(T);
}
// * * * * * * * * * * * * * * * * * * * * * * * * * * * * * * * * * * * * * //

dimensions      [1 0 -3 -1 0 0 0];


internalField   uniform 0;

boundaryField
{
    maxY
    {
        type            calculated;
        value           uniform 0;
    }
    minX
    {
        type            calculated;
        value           uniform 0;
    }
    maxX
    {
        type            calculated;
        value           uniform 0;
    }
    minY
    {
        type            calculated;
        value           uniform 0;
    }
    minZ
    {
        type            calculated;
        value           uniform 0;
    }
    maxZ
    {
        type            calculated;
        value           uniform 0;
    }
    air_to_sphere
    {
        type            calculated;
        value           nonuniform List<scalar> 
1536
(
-16.4052
-19.2975
-18.2548
-19.4243
-17.7679
-18.4218
-14.8694
-14.7787
-13.5039
-18.7463
-18.6935
-12.9147
-16.4945
-19.677
-20.867
-19.1284
-20.4059
-19.1763
-19.641
-19.881
-16.854
-15.8756
-16.6057
-14.5504
-14.2641
-13.9505
-13.8886
-12.2972
-11.8317
-20.5292
-17.3472
-20.9616
-19.6519
-19.4727
-20.1682
-14.7021
-12.8715
-16.4222
-12.6828
-12.2193
-10.0515
-9.40115
-11.6642
-18.4518
-17.3158
-21.0406
-17.15
-14.6392
-13.8967
-14.4706
-11.7749
-16.4702
-19.4253
-19.1504
-14.7237
-13.2773
-14.8864
-14.5903
-12.8078
-19.412
-16.5878
-15.722
-14.8608
-14.9148
-16.5757
-15.7536
-14.8207
-15.3782
-14.4108
-14.4229
-19.528
-19.3072
-13.4585
-19.8704
-19.732
-15.7101
-13.153
-15.8427
-14.872
-14.4942
-15.3437
-19.3021
-18.4325
-13.3688
-18.9453
-19.0431
-17.7423
-13.5249
-18.3719
-19.4576
-17.02
-15.6404
-13.6221
-15.8729
-15.0114
-12.6837
-19.3411
-18.9529
-14.28
-14.9191
-14.2035
-16.8018
-16.6366
-15.8057
-16.534
-16.6227
-15.7371
-12.3628
-14.9832
-12.7947
-19.0801
-16.9054
-13.6103
-18.2087
-14.9529
-14.347
-14.2153
-17.6851
-17.651
-15.6084
-15.4306
-14.7732
-12.9064
-17.3216
-17.2961
-19.6678
-19.5139
-18.5041
-21.2732
-19.7343
-19.2255
-20.613
-20.3687
-19.9621
-15.3229
-18.3434
-14.8877
-17.4634
-14.8791
-19.733
-14.3125
-17.563
-18.3582
-15.3377
-14.6359
-14.5507
-14.5373
-13.949
-13.931
-14.3795
-14.9936
-13.8456
-14.6263
-13.5388
-13.1756
-13.5573
-16.1553
-13.4524
-11.7163
-13.5144
-18.5034
-11.6673
-13.5299
-14.2288
-14.0751
-17.3938
-20.6598
-19.4509
-20.601
-19.6043
-18.3679
-19.3013
-17.1618
-18.3484
-20.2858
-20.9569
-17.2733
-17.5248
-18.5144
-18.04
-20.6565
-20.2246
-18.8164
-19.5028
-20.9343
-17.5851
-19.6359
-15.6607
-14.6148
-19.6013
-18.1659
-15.9347
-14.8048
-19.3988
-14.5758
-19.3383
-15.5872
-13.6736
-15.089
-19.4604
-17.3737
-17.0401
-18.3821
-16.6253
-13.5181
-17.9684
-19.3383
-14.7256
-19.3144
-12.912
-13.5788
-16.3636
-11.8639
-13.1756
-14.2925
-12.2407
-12.1531
-12.36
-12.4102
-13.8883
-12.0941
-11.9552
-18.3739
-14.1677
-12.7291
-16.2241
-11.707
-13.3606
-12.0515
-10.3649
-9.50948
-9.40696
-11.7936
-17.4326
-18.2121
-18.4132
-20.5579
-19.3213
-18.3369
-20.3411
-20.3472
-20.2625
-19.1218
-17.0733
-17.6441
-20.8578
-19.3921
-18.4835
-17.7531
-19.3562
-18.9867
-20.7891
-19.434
-20.3315
-17.6115
-20.0546
-19.5698
-20.2979
-19.9649
-18.9685
-15.9954
-15.861
-15.6521
-18.2537
-19.6629
-18.3291
-16.5454
-18.4749
-14.7066
-15.5459
-14.6154
-15.1099
-19.4588
-17.6713
-15.053
-14.2979
-17.6424
-16.2681
-18.3886
-19.4018
-14.0502
-13.3579
-18.0055
-13.8999
-19.4961
-14.3172
-11.8305
-13.387
-13.6987
-13.2373
-13.1285
-14.0508
-13.3687
-12.3166
-12.0899
-12.3377
-14.2399
-12.0316
-14.318
-16.4376
-13.3173
-18.689
-14.1887
-9.50171
-10.8433
-12.1808
-11.2409
-17.3689
-20.8506
-19.5794
-19.9028
-17.739
-19.3647
-19.8514
-17.7084
-19.2859
-19.4823
-15.4145
-14.7699
-18.1087
-18.3472
-15.4228
-14.6728
-18.0555
-15.1562
-14.755
-18.2247
-15.1733
-14.6414
-14.8194
-14.6947
-14.0287
-13.8985
-14.4362
-17.4751
-13.9127
-14.1085
-13.9529
-13.7276
-13.3142
-11.8707
-13.287
-18.4616
-12.7502
-15.8343
-13.6403
-14.1218
-15.9918
-18.5007
-17.6945
-16.9307
-17.0725
-15.9053
-19.3548
-19.9134
-16.3072
-15.9867
-15.4657
-15.0363
-16.8617
-16.4946
-21.146
-16.2262
-17.6378
-16.2299
-16.7203
-17.8978
-17.2535
-16.7937
-19.5255
-15.8183
-14.9903
-16.5044
-15.5235
-18.161
-17.4691
-16.246
-19.383
-15.6326
-16.1579
-16.367
-15.4895
-14.2261
-14.9077
-13.2112
-15.0882
-17.2107
-13.3745
-13.408
-17.0927
-19.3181
-17.8902
-15.7231
-16.0207
-20.42
-17.5277
-17.1754
-16.7127
-16.0312
-16.0845
-18.7834
-13.7557
-18.6671
-16.8499
-15.2069
-14.1221
-14.0628
-17.6006
-16.5886
-15.9882
-15.8743
-14.7832
-14.1636
-14.6014
-15.1864
-16.8429
-13.3117
-13.4619
-18.2728
-19.4285
-16.416
-16.023
-16.3776
-20.5337
-19.5982
-17.9427
-21.0525
-17.9843
-17.7239
-18.0534
-16.2165
-13.8736
-18.3243
-16.167
-19.0932
-16.4207
-14.1883
-15.3707
-14.2116
-17.9881
-16.6934
-15.9787
-15.7915
-14.2556
-14.0986
-15.114
-14.4969
-14.1383
-13.5781
-16.4422
-13.1753
-15.2359
-15.9901
-19.7877
-15.0226
-15.9884
-16.6511
-16.37
-20.7292
-15.1648
-14.2719
-14.1924
-16.595
-14.08
-13.5812
-16.1723
-13.2847
-16.0742
-15.7424
-19.447
-18.4306
-18.1643
-20.1154
-20.1176
-19.9806
-20.1137
-20.4352
-17.475
-18.3914
-15.0302
-18.4203
-19.5888
-16.3177
-17.8357
-17.2223
-18.7204
-13.5396
-13.5563
-14.0125
-14.0672
-13.5856
-14.349
-15.4314
-14.0646
-13.6473
-13.6965
-14.0406
-18.2709
-18.3717
-15.3311
-13.6386
-15.8636
-15.6008
-15.9684
-18.0955
-16.0938
-15.7904
-12.6445
-15.0333
-16.3184
-15.2439
-16.3907
-14.739
-17.4431
-18.6004
-17.9498
-19.6396
-17.5217
-17.3367
-19.3819
-19.2693
-19.1556
-21.0607
-19.6155
-19.0122
-19.8655
-20.1093
-20.2278
-21.0968
-19.8678
-17.651
-20.5435
-18.4398
-16.8362
-17.7604
-17.3169
-17.7888
-17.3842
-18.2282
-19.3438
-15.7875
-15.6468
-16.8037
-21.3711
-14.2019
-13.7146
-14.8683
-14.9566
-17.2657
-15.3864
-13.5375
-14.9765
-16.2769
-16.9023
-17.402
-16.2356
-14.9271
-16.4737
-16.0693
-15.5499
-11.9579
-12.0602
-12.2806
-12.1991
-8.61005
-10.5022
-12.3541
-10.146
-20.2246
-20.26
-19.8611
-19.8515
-19.2188
-20.7246
-20.3828
-20.1995
-20.6073
-19.6623
-17.06
-17.6295
-20.0817
-18.5788
-19.1787
-15.9001
-16.1573
-19.934
-19.9121
-15.6693
-14.299
-14.0995
-14.852
-16.3179
-15.3162
-16.4175
-15.9537
-12.2603
-16.3496
-14.8289
-12.5838
-10.7677
-9.55227
-12.2049
-12.2293
-11.0066
-10.7027
-10.2296
-10.2629
-11.0474
-11.8588
-19.1285
-19.671
-20.2669
-20.9859
-19.1766
-19.1443
-19.8413
-19.4496
-20.5311
-20.4375
-20.1711
-20.507
-16.8693
-16.8952
-20.7641
-20.0412
-20.3698
-20.7196
-21.3841
-18.48
-19.5916
-16.7548
-17.4917
-18.9779
-18.685
-19.1098
-16.9319
-15.8399
-19.3908
-19.6655
-19.3618
-19.242
-14.0227
-13.8007
-13.8457
-14.4512
-18.5647
-13.9654
-13.6639
-13.9916
-17.0705
-17.0531
-17.2855
-15.6483
-14.609
-16.4852
-17.2738
-14.8683
-17.902
-13.0773
-17.3034
-17.6075
-15.3539
-15.363
-12.6539
-14.7888
-17.0506
-14.5123
-11.7798
-14.2819
-12.668
-17.2535
-17.3203
-16.0812
-16.1356
-14.33
-12.2755
-16.9705
-16.8755
-19.9663
-18.9037
-19.2809
-20.1919
-20.1896
-20.0349
-19.5045
-19.3589
-19.5587
-20.1025
-19.7067
-20.5066
-19.8103
-19.5833
-19.512
-19.9917
-19.073
-19.7591
-20.2313
-20.1781
-20.0222
-20.0565
-20.5662
-17.44
-18.3545
-20.5669
-20.0859
-19.5561
-20.1927
-19.0564
-19.5943
-19.6128
-19.092
-19.9563
-19.9109
-20.9979
-18.8993
-20.5354
-20.4898
-20.5265
-20.8223
-20.548
-19.3144
-17.2464
-19.8447
-19.7408
-20.4114
-19.9624
-19.3008
-18.3988
-20.167
-19.9958
-20.4013
-20.2887
-20.5284
-19.9971
-17.463
-19.1984
-19.3904
-20.1533
-21.2243
-20.0866
-19.9413
-20.8758
-20.1406
-20.3143
-19.9337
-21.2834
-18.7546
-19.9373
-19.1881
-17.3105
-20.0993
-18.9568
-19.6573
-19.2197
-18.0306
-19.1658
-19.6598
-15.8307
-18.1759
-14.4865
-16.4956
-19.3335
-17.1817
-18.7457
-19.246
-15.4878
-15.4989
-14.4183
-14.4416
-15.8019
-16.0218
-14.7223
-19.02
-16.6988
-17.1784
-19.4556
-19.1106
-16.9205
-19.297
-16.2496
-14.6874
-16.1628
-15.8516
-15.9245
-15.6465
-14.4101
-14.5231
-15.6211
-14.4557
-19.6314
-19.3406
-16.6055
-17.3593
-19.558
-18.2712
-15.6883
-17.4406
-16.0562
-14.6547
-15.9576
-15.9987
-14.5073
-14.1062
-16.0814
-14.2655
-14.269
-18.9526
-18.6771
-15.5233
-19.7102
-13.5558
-19.2485
-17.5095
-19.5088
-14.0982
-14.1716
-14.2818
-17.3694
-15.7517
-19.4171
-13.478
-20.4735
-18.4629
-19.0731
-16.8603
-19.3257
-17.4197
-13.6674
-14.0218
-19.0154
-18.4265
-15.2205
-18.4607
-14.1916
-19.073
-13.7604
-13.7968
-13.2226
-16.7826
-14.0794
-19.4801
-15.8632
-15.5395
-18.9505
-14.1575
-19.3688
-18.9576
-19.4134
-17.429
-17.8157
-17.3451
-17.5953
-15.4937
-18.41
-15.251
-15.7954
-14.9586
-14.4817
-15.2087
-15.0959
-14.1411
-13.945
-15.6027
-16.1612
-15.1834
-16.2915
-14.7478
-15.1913
-14.784
-14.9156
-14.3554
-13.6952
-15.5829
-14.8338
-14.6529
-13.1573
-14.3185
-13.9077
-13.3585
-13.7483
-11.8252
-18.144
-16.4227
-13.5943
-15.412
-15.2245
-16.3304
-15.2408
-14.75
-15.021
-15.8704
-13.9642
-13.3299
-13.8866
-12.1579
-11.69
-13.9778
-13.6196
-15.0947
-15.0189
-14.9747
-14.6216
-14.6086
-16.281
-15.6339
-13.1125
-16.7428
-17.8573
-15.6062
-15.305
-13.1016
-14.9265
-17.7037
-15.7045
-17.0355
-19.5934
-17.8106
-15.4336
-17.4241
-21.2334
-19.484
-15.2441
-17.9693
-16.9684
-21.1695
-18.052
-18.2412
-18.3921
-17.7092
-14.5453
-19.006
-17.5729
-19.7336
-18.3842
-20.0793
-18.1229
-18.2108
-18.3439
-17.6964
-19.6613
-20.4568
-17.8591
-17.0323
-17.1298
-18.6702
-19.1479
-19.9264
-20.5543
-21.014
-19.0305
-20.6231
-20.0995
-18.7737
-19.7241
-20.6466
-20.5337
-17.8899
-20.8757
-20.1412
-20.1984
-19.8491
-19.8349
-20.382
-19.8786
-20.6228
-20.1032
-20.3026
-19.9563
-20.9663
-19.0674
-18.3601
-19.7573
-21.3345
-20.3938
-17.4667
-19.0035
-20.3867
-20.4058
-20.1124
-20.5981
-20.1463
-20.4135
-20.2253
-19.6892
-19.661
-17.2536
-19.5851
-16.8115
-13.4667
-15.1206
-14.7131
-18.2661
-18.569
-11.3916
-16.2139
-13.1867
-19.0618
-16.1069
-15.8455
-16.7609
-16.5652
-19.77
-15.839
-14.5681
-15.5531
-15.9573
-18.8345
-16.2481
-16.6321
-15.7762
-16.5556
-14.9959
-15.4891
-16.6235
-13.9145
-13.1986
-16.5913
-14.2149
-15.1646
-14.2675
-17.457
-15.799
-15.0154
-13.2492
-20.1851
-16.1671
-16.1919
-16.6755
-20.8381
-19.2443
-17.7475
-14.4299
-14.9486
-14.16
-13.2467
-18.4662
-13.4456
-12.282
-14.5392
-14.3588
-14.012
-15.3534
-14.4455
-14.6456
-12.8759
-13.5991
-16.4051
-15.0091
-15.7842
-16.4157
-14.6168
-15.02
-14.6167
-13.9439
-13.5731
-11.9797
-13.3582
-12.5934
-12.0905
-12.5328
-12.643
-12.303
-13.9132
-12.9069
-12.514
-12.724
-14.232
-13.8498
-15.3607
-15.7545
-17.9654
-13.5658
-13.9214
-13.6817
-15.2317
-15.3291
-14.5004
-12.2691
-16.4619
-15.06
-16.3073
-12.6178
-16.2089
-14.4716
-13.8801
-15.1147
-13.4674
-11.9091
-13.3098
-14.4559
-7.68143
-10.5955
-7.76501
-9.20286
-10.7386
-10.1256
-10.6224
-10.3771
-10.3654
-11.3957
-10.7359
-10.2813
-10.2641
-10.8227
-12.017
-10.6752
-17.0919
-17.9703
-16.2606
-17.3232
-18.1657
-18.4145
-18.3412
-17.7843
-17.4985
-17.4798
-19.1021
-17.9981
-16.5925
-19.3453
-20.9553
-18.2012
-18.3655
-18.2322
-17.8006
-17.6894
-17.9053
-19.2971
-20.338
-18.5067
-17.7866
-14.3941
-19.142
-21.1549
-19.7482
-17.688
-19.9873
-17.3637
-20.4415
-20.6978
-20.0711
-18.587
-19.6
-19.642
-18.9887
-18.4788
-19.131
-19.5033
-20.2011
-21.0312
-19.9891
-20.0219
-19.7415
-20.0412
-18.4164
-20.086
-20.1316
-20.4693
-19.0678
-20.303
-18.3492
-20.5181
-20.3053
-20.6887
-21.1873
-20.2736
-20.1769
-19.9392
-19.8416
-19.7166
-16.267
-17.2951
-18.8656
-19.2186
-20.0657
-21.0304
-20.4163
-20.6827
-20.7977
-18.3237
-18.9365
-19.8481
-20.5713
-20.2843
-20.2301
-19.2831
-16.0073
-14.5162
-15.7941
-16.0537
-16.7827
-15.9132
-13.1784
-17.1231
-16.6616
-17.2599
-12.8543
-15.1108
-17.0635
-17.7608
-18.2182
-17.1757
-18.7408
-19.3984
-16.3418
-16.4757
-16.463
-15.6868
-16.0254
-15.7572
-15.5678
-15.5075
-14.229
-14.353
-15.1894
-16.6156
-17.1007
-13.2866
-14.3278
-16.1613
-19.897
-14.9558
-15.1965
-16.4853
-21.0064
-13.3327
-13.882
-16.5506
-16.3018
-16.9615
-19.4337
-15.0191
-16.3272
-16.9239
-15.9012
-18.206
-20.5645
-13.3518
-13.4954
-18.7812
-16.918
-14.2464
-14.9786
-14.6471
-16.7578
-15.2868
-14.7957
-13.8973
-13.4153
-13.7724
-12.7115
-11.8709
-13.3396
-15.5459
-15.2616
-17.387
-16.544
-16.5605
-14.9269
-15.9808
-13.7517
-14.6885
-15.4147
-14.5563
-13.5323
-14.9067
-14.4204
-11.9997
-11.9786
-13.4622
-11.9878
-12.4318
-12.3506
-12.758
-12.3226
-12.2665
-13.7998
-12.8134
-12.353
-14.3579
-12.4363
-16.4363
-15.2371
-16.2651
-16.7005
-15.3168
-14.5899
-13.8017
-15.2881
-13.3011
-13.3393
-11.8443
-14.5326
-16.1068
-15.7717
-13.7868
-14.8302
-15.2726
-17.9779
-15.9129
-17.2398
-13.5981
-14.5913
-15.1676
-14.3939
-15.8384
-14.7595
-10.5777
-10.371
-10.3301
-10.4898
-9.84455
-10.5825
-10.7671
-10.6458
-12.4837
-11.6799
-9.04039
-10.4949
-17.0213
-20.375
-19.5193
-20.2398
-19.9129
-19.7063
-19.5424
-19.6598
-19.1557
-19.8161
-19.8542
-19.1275
-19.7568
-19.4834
-20.425
-20.1997
-20.3664
-20.7321
-20.0187
-20.3887
-20.1806
-20.0393
-20.205
-17.1675
-18.9866
-19.5372
-18.6331
-20.2093
-20.2312
-19.3789
-17.347
-19.8606
-19.4603
-18.8465
-19.3008
-19.8387
-21.4294
-19.938
-20.3822
-20.3357
-21.034
-20.156
-20.1382
-18.5741
-17.5458
-17.4578
-19.7844
-19.4771
-20.5804
-20.1407
-19.2318
-19.6783
-18.424
-19.92
-20.1592
-19.3329
-19.8826
-17.063
-20.1947
-19.0396
-19.6708
-18.0499
-19.385
-19.837
-15.8333
-18.962
-16.452
-15.4402
-16.0606
-14.7073
-14.1596
-18.4199
-15.337
-18.9518
-19.2828
-16.5789
-17.4834
-18.4385
-15.4527
-14.148
-15.5182
-16.0335
-16.2135
-14.6727
-18.9723
-16.2393
-17.1578
-19.1444
-18.2951
-15.7364
-16.0954
-15.3728
-15.7619
-15.6638
-14.662
-14.2638
-18.1388
-14.9387
-19.2391
-17.454
-16.133
-17.135
-15.3928
-15.8827
-15.8582
-15.3584
-14.667
-14.2428
-15.5773
-19.4812
-13.5709
-19.9426
-20.0293
-19.9599
-18.9579
-17.7446
-13.8041
-13.663
-13.9902
-16.1416
-14.4312
-14.1898
-14.0329
-19.4735
-18.7079
-19.1383
-15.7385
-13.4666
-18.6736
-17.688
-18.4274
-14.179
-13.8291
-14.1078
-16.3599
-14.0485
-13.9377
-18.8966
-19.3274
-15.4967
-18.0401
-13.5397
-19.2724
-18.9091
-17.6422
-13.2538
-15.6827
-13.7844
-13.7675
-14.0288
-13.8804
-18.9791
-19.393
-17.7022
-18.9256
-15.2424
-13.8341
-15.6752
-17.725
-15.8277
-15.6649
-14.5148
-17.5175
-15.635
-17.9446
-14.4186
-18.1429
-14.3217
-13.8254
-15.1914
-14.4988
-14.5688
-13.0947
-13.9559
-15.1083
-13.6502
-11.9975
-13.3582
-14.52
-18.2357
-15.4631
-16.0129
-13.4865
-15.1749
-16.4225
-15.1536
-12.1291
-16.1375
-15.101
-16.0013
-14.5129
-14.9511
-16.4121
-14.0809
-15.1142
-13.6212
-11.8176
-13.4823
-14.514
-14.5262
-13.7923
-15.3652
-14.9035
-14.8776
-14.5554
-15.6727
-15.1748
-16.293
-15.1204
-16.1254
-14.5068
-18.0692
-16.2032
-17.248
-16.0686
-13.7434
-15.4374
)
;
    }
}


// ************************************************************************* //
