/*--------------------------------*- C++ -*----------------------------------*\
| =========                 |                                                 |
| \\      /  F ield         | OpenFOAM: The Open Source CFD Toolbox           |
|  \\    /   O peration     | Version:  v1912                                 |
|   \\  /    A nd           | Website:  www.openfoam.com                      |
|    \\/     M anipulation  |                                                 |
\*---------------------------------------------------------------------------*/
FoamFile
{
    version     2.0;
    format      ascii;
    class       volScalarField;
    location    "0.5/air";
    object      wallHeatFlux;
}
// * * * * * * * * * * * * * * * * * * * * * * * * * * * * * * * * * * * * * //

dimensions      [1 0 -3 0 0 0 0];


internalField   uniform 0;

boundaryField
{
    maxY
    {
        type            calculated;
        value           uniform 0;
    }
    minX
    {
        type            calculated;
        value           uniform 0;
    }
    maxX
    {
        type            calculated;
        value           uniform 0;
    }
    minY
    {
        type            calculated;
        value           uniform 0;
    }
    minZ
    {
        type            calculated;
        value           uniform 0;
    }
    maxZ
    {
        type            calculated;
        value           uniform 0;
    }
    air_to_sphere
    {
        type            calculated;
        value           nonuniform List<scalar> 
1536
(
3278.58
3856.58
3648.21
3881.92
3550.9
3681.59
2971.77
2953.66
2698.88
3746.59
3736.02
2581.13
3296.58
3932.35
4170.16
3822.71
4078.02
3832.27
3925.16
3973.18
3368.3
3172.73
3318.66
2908.01
2850.81
2788.13
2775.77
2457.8
2364.78
4102.66
3466.77
4189.07
3927.4
3891.59
4030.64
2938.34
2572.49
3282.13
2534.78
2442.23
2008.99
1879.03
2331.27
3687.51
3460.5
4204.85
3427.42
2925.77
2777.37
2892.08
2353.39
3291.58
3882.12
3827.24
2942.65
2653.57
2975.17
2916
2559.77
3879.52
3315.08
3142.15
2970.04
2980.82
3312.66
3148.47
2962.03
3073.43
2880.12
2882.54
3902.8
3858.68
2689.8
3971.07
3943.47
3139.77
2628.72
3166.26
2972.29
2896.8
3066.57
3857.64
3683.87
2671.86
3786.19
3805.75
3545.79
2703.06
3671.75
3888.58
3401.49
3125.85
2722.46
3172.3
3000.16
2534.94
3865.45
3787.88
2853.99
2981.72
2838.7
3357.92
3324.89
3158.88
3304.4
3322.12
3145.16
2470.8
2994.51
2557.13
3813.28
3378.67
2720.12
3639.14
2988.46
2867.37
2841.05
3534.32
3527.52
3119.44
3083.92
2952.55
2579.48
3461.66
3456.55
3930.54
3899.81
3697.96
4251.34
3943.85
3842.16
4119.39
4070.57
3989.32
3062.39
3665.91
2975.4
3490.05
2973.69
3943.62
2860.46
3509.96
3668.88
3065.35
2925.09
2908.07
2905.4
2787.81
2784.22
2873.87
2996.57
2767.15
2923.2
2705.86
2633.25
2709.53
3228.77
2688.63
2341.68
2701.06
3698.04
2331.9
2704.17
2843.82
2813.08
3476.07
4128.74
3887.19
4117
3917.83
3670.76
3857.29
3429.7
3666.87
4054.01
4188.13
3452
3502.31
3700.01
3605.25
4128.09
4041.83
3760.44
3897.58
4183.61
3514.35
3924.18
3129.9
2920.86
3917.31
3630.5
3184.64
2958.86
3876.84
2913.07
3864.8
3115.21
2732.77
3015.66
3889.28
3472.26
3405.57
3673.79
3322.68
2701.7
3591.12
3864.88
2943.04
3860.12
2580.59
2713.89
3270.41
2371.19
2633.34
2856.54
2446.49
2428.98
2470.36
2480.39
2775.75
2417.17
2389.45
3672.16
2831.58
2544.03
3242.53
2339.84
2670.33
2408.73
2071.62
1900.68
1880.19
2357.18
3483.82
3639.61
3679.83
4108.39
3861.28
3664.58
4065.06
4066.3
4049.36
3821.42
3412.01
3526.14
4168.33
3875.44
3693.84
3547.93
3868.24
3794.39
4154.59
3883.77
4063.14
3519.63
4007.85
3910.92
4056.52
3989.93
3790.9
3196.79
3169.92
3128.18
3647.99
3929.62
3663.11
3306.6
3692.21
2939.22
3106.95
2920.98
3019.83
3888.96
3531.73
3008.45
2857.55
3525.96
3251.3
3675.08
3877.58
2808.06
2669.68
3598.53
2778
3896.42
2861.41
2364.5
2675.58
2737.81
2645.64
2623.94
2808.23
2671.95
2461.68
2416.38
2465.89
2846.04
2404.68
2861.64
3285.2
2661.67
3735.14
2835.79
1899.13
2167.24
2434.56
2246.72
3471.1
4166.89
3912.92
3977.52
3545.11
3870
3967.2
3538.98
3854.23
3893.48
3080.7
2951.87
3619.01
3666.68
3082.35
2932.47
3608.38
3029.1
2948.91
3642.2
3032.5
2926.2
2961.76
2936.87
2803.76
2777.72
2885.19
3492.53
2780.57
2819.71
2788.61
2743.57
2661.01
2372.55
2655.6
3689.68
2548.26
3164.62
2726.21
2822.41
3196.1
3697.5
3536.25
3383.63
3411.98
3178.73
3868.09
3979.67
3259.03
3194.96
3090.92
3005.13
3369.95
3296.56
4226.13
3242.85
3524.95
3243.59
3341.57
3576.86
3448.15
3356.29
3902.19
3161.37
2995.89
3298.49
3102.48
3629.47
3491.24
3246.83
3873.7
3124.26
3229.23
3271.03
3095.68
2843.22
2979.43
2640.37
3015.52
3439.68
2673
2679.72
3416.09
3860.86
3575.47
3142.39
3201.86
4081.05
3502.91
3432.54
3340.08
3203.87
3214.52
3753.86
2749.14
3730.64
3367.53
3039.2
2822.38
2810.53
3517.55
3315.31
3195.33
3172.59
2954.55
2830.71
2918.21
3035.14
3366.17
2660.46
2690.48
3651.94
3882.91
3280.85
3202.32
3273.18
4103.77
3916.68
3585.88
4207.31
3594.2
3542.23
3608.09
3240.92
2772.68
3662.1
3231.03
3815.8
3281.76
2835.63
3071.95
2840.25
3594.99
3336.26
3193.43
3156.04
2849.12
2817.72
3020.65
2897.32
2825.65
2713.71
3286.11
2633.2
3045
3195.75
3954.69
3002.38
3195.38
3327.85
3271.65
4142.83
3030.8
2852.37
2836.48
3316.63
2814.01
2714.33
3232.15
2655.05
3212.55
3146.26
3886.6
3683.48
3630.25
4019.97
4020.39
3993.03
4019.61
4083.95
3492.4
3675.54
3003.85
3681.28
3914.82
3261.14
3564.5
3441.92
3741.25
2706.02
2709.35
2800.53
2811.46
2715.21
2867.77
3084.09
2810.95
2727.55
2737.39
2806.15
3651.57
3671.73
3064.05
2725.82
3170.47
3117.97
3191.39
3616.52
3216.51
3155.84
2527.12
3004.53
3261.38
3046.64
3275.84
2945.75
3486.13
3717.42
3587.41
3924.88
3501.63
3464.67
3873.37
3850.89
3828.17
4208.87
3920.05
3799.49
3970.02
4018.73
4042.4
4216.07
3970.47
3527.46
4105.53
3685.22
3364.76
3549.41
3460.79
3555.12
3474.29
3642.9
3865.87
3155.19
3127.04
3358.34
4271.1
2838.38
2740.97
2971.56
2989.21
3450.67
3075.12
2705.61
2993.19
3253.07
3378.06
3477.92
3244.82
2983.3
3292.44
3211.6
3107.81
2389.98
2410.43
2454.49
2438.19
1720.89
2099.08
2469.19
2027.88
4041.78
4048.87
3969.13
3967.23
3840.79
4141.72
4073.38
4036.74
4118.26
3929.4
3409.36
3523.17
4013.21
3712.97
3832.88
3177.67
3229.08
3983.84
3979.41
3131.52
2857.78
2817.91
2968.29
3261.29
3061.1
3281.2
3188.49
2450.33
3267.59
2963.7
2514.99
2152.14
1909.21
2439.35
2444.24
2199.89
2139.16
2044.59
2051.26
2208.04
2370.16
3822.73
3931.13
4050.22
4193.91
3832.35
3825.87
3965.18
3886.91
4103.05
4084.33
4031.09
4098.22
3371.27
3376.41
4149.59
4005.13
4070.79
4140.68
4273.51
3693.16
3915.4
3348.49
3495.76
3792.71
3734.18
3819.11
3383.87
3165.67
3875.23
3930.13
3869.45
3845.49
2802.57
2758.21
2767.18
2888.2
3710.27
2791.12
2730.86
2796.36
3411.68
3408.17
3454.63
3127.47
2919.75
3294.73
3452.3
2971.56
3577.86
2613.64
3458.22
3519.01
3068.63
3070.45
2529.01
2955.69
3407.67
2900.42
2354.37
2854.38
2531.82
3448.09
3461.44
3213.9
3224.8
2863.97
2453.38
3391.49
3372.51
3990.21
3777.85
3853.27
4035.27
4034.79
4003.87
3897.91
3868.86
3908.74
4017.43
3938.32
4098.15
3958.99
3913.66
3899.42
3995.24
3811.73
3948.76
4043.12
4032.49
4001.34
4008.17
4110.07
3485.34
3668.08
4110.19
4014.08
3908.22
4035.41
3808.38
3915.83
3919.54
3815.44
3988.14
3979.08
4196.31
3776.91
4103.89
4094.79
4102.11
4161.23
4106.4
3859.94
3446.64
3965.87
3945.12
4079.16
3989.43
3857.21
3676.92
4030.27
3996.07
4077.12
4054.58
4102.48
3996.32
3489.88
3836.7
3875.05
4027.53
4241.55
4014.2
3985.16
4171.9
4025.01
4059.72
3983.69
4253.39
3748.04
3984.4
3834.69
3459.44
4016.76
3788.48
3928.46
3841.05
3603.36
3830.27
3928.95
3163.85
3632.48
2895.19
3296.68
3863.81
3433.8
3746.31
3846.3
3095.32
3097.53
2881.61
2886.27
3158.1
3202.04
2942.38
3801.16
3337.29
3433.15
3888.17
3819.28
3381.62
3856.48
3247.57
2935.4
3230.22
3168.04
3182.6
3127.04
2879.99
2902.56
3121.97
2889.09
3923.32
3865.25
3318.65
3469.3
3908.66
3651.53
3135.38
3485.54
3208.92
2928.86
3189.22
3197.43
2899.4
2819.24
3213.99
2851.1
2851.79
3787.8
3732.75
3102.45
3939.21
2709.23
3846.93
3499.4
3898.95
2817.66
2832.32
2854.33
3471.39
3148.1
3880.64
2693.69
4091.73
3689.92
3811.88
3369.64
3862.35
3481.43
2731.57
2802.4
3800.35
3682.66
3041.95
3689.5
2836.31
3811.86
2750.15
2757.44
2642.66
3354.13
2813.89
3893.23
3170.36
3105.71
3787.4
2829.49
3870.98
3788.79
3879.9
3483.31
3560.61
3466.55
3516.56
3096.54
3679.38
3048.03
3156.86
2989.63
2894.31
3039.6
3017.06
2826.26
2787.08
3118.34
3229.97
3034.55
3256.01
2947.49
3036.16
2954.76
2981.04
2869.08
2737.14
3114.41
2964.71
2928.56
2629.67
2861.77
2779.62
2669.87
2747.8
2363.45
3626.22
3282.19
2716.96
3080.23
3042.76
3263.78
3046.06
2947.97
3002.09
3171.85
2790.91
2664.16
2775.44
2429.94
2336.42
2793.61
2722.04
3016.85
3001.7
2992.87
2922.31
2919.73
3253.89
3124.57
2620.67
3346.19
3568.91
3119.05
3058.87
2618.49
2983.2
3538.21
3138.72
3404.47
3915.65
3559.38
3084.34
3482.14
4243.37
3893.8
3046.46
3591.1
3391.07
4230.62
3607.63
3645.44
3675.6
3539.12
2906.82
3798.26
3511.87
3943.67
3673.98
4012.75
3621.8
3639.37
3665.96
3536.55
3929.2
4088.19
3569.06
3403.83
3423.36
3731.12
3826.6
3982.18
4107.66
4199.54
3803.14
4121.42
4016.78
3751.84
3941.77
4126.16
4103.59
3575.24
4171.91
4025.11
4036.56
3966.74
3963.92
4073.24
3972.62
4121.35
4017.54
4057.42
3988.17
4190.01
3810.52
3669.18
3948.41
4263.63
4075.64
3490.68
3797.82
4074.18
4077.99
4019.35
4116.42
4026.13
4079.54
4041.94
3934.8
3929.22
3448.1
3914
3359.84
2691.4
3021.96
2940.49
3650.54
3711.01
2276.64
3240.4
2635.41
3809.51
3219.05
3166.83
3349.73
3310.65
3951.02
3165.51
2911.5
3108.4
3189.11
3764.11
3247.23
3324
3152.98
3308.71
2997.04
3095.6
3322.31
2780.93
2637.86
3315.9
2840.97
3030.75
2851.48
3488.89
3157.57
3000.94
2647.97
4034.11
3231.11
3236.07
3332.72
4164.6
3846.1
3546.95
2883.95
2987.6
2830.01
2647.46
3690.6
2687.23
2454.67
2905.81
2869.76
2800.46
3068.56
2887.11
2927.11
2573.44
2717.98
3278.72
2999.72
3154.62
3280.84
2921.32
3001.93
2921.33
2786.87
2712.78
2394.33
2669.82
2516.99
2416.5
2504.88
2526.92
2458.95
2780.75
2579.64
2501.13
2543.1
2844.39
2768.02
3069.98
3148.66
3590.53
2711.25
2782.35
2734.44
3044.23
3063.69
2898.08
2452.16
3290.07
3009.89
3259.15
2521.79
3239.51
2892.3
2774.12
3020.86
2691.66
2380.21
2660.14
2889.2
1535.28
2117.72
1552
1839.37
2146.32
2023.81
2123.12
2074.08
2071.74
2277.63
2145.78
2054.94
2051.49
2163.12
2401.82
2133.64
3415.75
3591.3
3249.62
3461.97
3630.35
3680.07
3665.43
3554.12
3497
3493.28
3817.48
3596.85
3315.94
3866.07
4187.81
3637.44
3670.29
3643.65
3557.37
3535.15
3578.3
3856.43
4064.45
3698.46
3554.59
2876.6
3825.45
4227.7
3946.58
3534.88
3994.37
3470.1
4085.11
4136.34
4011.11
3714.5
3916.98
3925.36
3794.83
3692.92
3823.23
3897.62
4037.08
4202.96
3994.72
4001.26
3945.23
4005.14
3680.45
4014.09
4023.21
4090.73
3810.68
4057.5
3667.03
4100.45
4057.92
4134.51
4234.15
4051.6
4032.26
3984.76
3965.26
3940.31
3250.92
3456.4
3770.19
3840.72
4010.02
4202.81
4080.07
4133.34
4156.33
3661.93
3784.38
3966.56
4111.1
4053.79
4042.92
3853.66
3199.11
2901.09
3156.52
3208.41
3354.1
3180.35
2633.76
3422.06
3329.86
3449.43
2569.02
3020
3410.21
3549.56
3640.9
3432.61
3745.38
3876.78
3265.99
3292.74
3290.2
3135.12
3202.75
3149.16
3111.33
3099.25
2843.77
2868.57
3035.72
3320.74
3417.68
2655.45
2863.51
3229.97
3976.53
2989.04
3037.11
3294.72
4198.22
2664.65
2774.43
3307.76
3258.04
3389.86
3883.94
3001.7
3263.13
3382.37
3177.98
3638.59
4109.93
2668.48
2697.18
3753.55
3381.17
2847.28
2993.61
2927.34
3349.16
3055.24
2957.1
2777.55
2681.23
2752.62
2540.58
2372.57
2666.06
3106.98
3050.17
3474.94
3306.45
3309.77
2983.28
3193.92
2748.43
2935.67
3080.8
2909.25
2704.64
2979.27
2882.1
2398.33
2394.11
2690.63
2395.97
2484.7
2468.49
2549.89
2462.87
2451.67
2758.08
2560.95
2468.94
2869.63
2485.61
3284.94
3045.29
3250.75
3337.73
3061.19
2915.93
2758.45
3055.52
2658.41
2666.06
2367.26
2904.52
3219.1
3152.13
2755.42
2963.96
3052.38
3593.02
3180.32
3445.5
2717.75
2916.24
3031.41
2876.8
3165.48
2949.86
2114.17
2072.86
2064.69
2096.58
1967.62
2115.12
2152.01
2127.76
2495.09
2334.44
1806.9
2097.61
3401.63
4071.86
3900.88
4044.83
3979.51
3938.25
3905.49
3928.95
3828.22
3960.18
3967.78
3822.62
3948.32
3893.74
4081.83
4036.79
4070.12
4143.19
4000.62
4074.58
4032.99
4004.77
4037.91
3430.88
3794.45
3904.4
3723.74
4038.73
4043.14
3872.83
3466.77
3969.04
3889.06
3766.38
3857.16
3964.66
4282.53
3984.49
4073.29
4063.99
4203.54
4028.08
4024.54
3711.97
3506.47
3488.91
3953.84
3892.42
4112.91
4025.05
3843.41
3932.61
3681.97
3980.92
4028.74
3863.62
3973.49
3409.98
4035.81
3805.01
3931.15
3607.2
3874.08
3964.41
3164.35
3789.54
3288.01
3085.79
3209.78
2939.38
2829.91
3681.24
3065.17
3787.54
3853.69
3313.33
3494.09
3684.92
3088.3
2827.59
3101.38
3204.39
3240.35
2932.46
3791.64
3245.48
3429.04
3825.99
3656.3
3144.99
3216.77
3072.34
3150.09
3130.49
2930.32
2850.75
3625.08
2985.58
3844.92
3488.21
3224.22
3424.47
3076.34
3174.25
3169.35
3069.46
2931.32
2846.55
3113.24
3893.44
2712.26
3985.65
4002.97
3989.1
3788.85
3546.36
2758.87
2730.69
2796.05
3226.02
2884.2
2835.97
2804.61
3891.89
3738.9
3824.91
3145.45
2691.41
3732.03
3535.07
3682.86
2833.82
2763.89
2819.56
3269.66
2807.74
2785.59
3776.6
3862.7
3097.15
3605.44
2706.02
3851.72
3779.11
3525.92
2648.89
3134.32
2754.94
2751.56
2803.79
2774.14
3793.1
3875.82
3537.91
3782.43
3046.31
2764.86
3132.82
3542.47
3163.31
3130.78
2900.93
3501.01
3124.78
3586.37
2881.73
3625.99
2862.35
2763.17
3036.18
2897.76
2911.75
2617.16
2789.26
3019.58
2728.18
2397.88
2669.8
2902.01
3644.55
3090.44
3200.32
2695.42
3032.84
3282.16
3028.59
2424.11
3225.24
3018.08
3198.02
2900.55
2988.12
3280.12
2814.24
3020.75
2722.4
2361.91
2694.62
2900.8
2903.23
2756.55
3070.91
2978.64
2973.46
2909.07
3132.33
3032.82
3256.31
3021.96
3222.82
2899.34
3611.27
3238.33
3447.14
3211.46
2746.75
3085.31
)
;
    }
}


// ************************************************************************* //
