/*--------------------------------*- C++ -*----------------------------------*\
  =========                 |
  \\      /  F ield         | OpenFOAM: The Open Source CFD Toolbox
   \\    /   O peration     | Website:  https://openfoam.org
    \\  /    A nd           | Version:  7
     \\/     M anipulation  |
\*---------------------------------------------------------------------------*/
FoamFile
{
    version     2.0;
    format      ascii;
    class       surfaceScalarField;
    location    "3600/water";
    object      phi;
}
// * * * * * * * * * * * * * * * * * * * * * * * * * * * * * * * * * * * * * //

dimensions      [1 0 -1 0 0 0 0];

internalField   nonuniform List<scalar> 
156660
(
9.905724e-05
6.0010402e-06
6.0528092e-06
8.6847498e-05
6.0555113e-06
6.1542307e-06
7.5687891e-05
5.5111362e-06
5.6484701e-06
6.5441704e-05
5.0404181e-06
5.2057689e-06
5.6267661e-05
4.4956436e-06
4.6783992e-06
4.8318019e-05
3.8797648e-06
4.0698777e-06
4.1624776e-05
3.2524448e-06
3.4407981e-06
3.6124897e-05
2.660462e-06
2.839417e-06
3.1692235e-05
2.1345127e-06
2.2981489e-06
2.8162841e-05
1.6926975e-06
1.8366964e-06
2.5361437e-05
1.3399934e-06
1.4614113e-06
2.3124664e-05
1.0698477e-06
1.1669256e-06
2.1315127e-05
8.6875419e-07
9.4078224e-07
1.9825714e-05
7.2110063e-07
7.6831272e-07
1.8577278e-05
6.1248245e-07
6.3595307e-07
1.7513255e-05
5.312522e-07
5.3277146e-07
1.6593744e-05
4.6879725e-07
4.5071346e-07
1.5790433e-05
4.1913717e-07
3.8417384e-07
1.5082784e-05
3.7829071e-07
3.2935848e-07
1.4455417e-05
3.436713e-07
2.8369563e-07
1.3896409e-05
3.1361409e-07
2.4539333e-07
1.339622e-05
2.8704449e-07
2.1314453e-07
1.2947015e-05
2.6326032e-07
1.8594509e-07
1.2542237e-05
2.4179365e-07
1.6298459e-07
1.2176318e-05
2.2232207e-07
1.4359692e-07
1.1844484e-05
2.046148e-07
1.2721881e-07
1.1542609e-05
1.8849492e-07
1.1337973e-07
1.1267116e-05
1.7381574e-07
1.0167793e-07
1.1014892e-05
1.6046271e-07
9.1760847e-08
1.0783252e-05
1.4833968e-07
8.3300615e-08
1.0569851e-05
1.3734905e-07
7.6052123e-08
1.0372614e-05
1.2738862e-07
6.984832e-08
1.0189731e-05
1.1836809e-07
6.4514844e-08
1.001963e-05
1.1020449e-07
5.9896628e-08
9.8609388e-06
1.0281922e-07
5.587166e-08
9.7124595e-06
9.6137982e-08
5.234136e-08
9.5731439e-06
9.0091201e-08
4.9224371e-08
9.4420759e-06
8.4614467e-08
4.6453587e-08
9.3184531e-06
7.9648649e-08
4.3974116e-08
9.2015723e-06
7.5139711e-08
4.1741069e-08
9.0908166e-06
7.1038131e-08
3.9717566e-08
8.9856431e-06
6.7301153e-08
3.7872303e-08
8.8855707e-06
6.3894259e-08
3.6178175e-08
8.7901757e-06
6.0780113e-08
3.4614948e-08
8.6990829e-06
5.792615e-08
3.3166683e-08
8.611959e-06
5.5303716e-08
3.1820135e-08
8.5285072e-06
5.2887449e-08
3.0564409e-08
8.4484618e-06
5.0655089e-08
2.9390291e-08
8.3715848e-06
4.8587046e-08
2.8290044e-08
8.2976614e-06
4.6666192e-08
2.7257226e-08
8.2264975e-06
4.4877477e-08
2.6286429e-08
8.1579202e-06
4.3208776e-08
2.5368521e-08
8.0917731e-06
4.1649039e-08
2.4498057e-08
8.0279107e-06
4.0186972e-08
2.3675338e-08
7.9662005e-06
3.881269e-08
2.2897527e-08
7.9065219e-06
3.7518402e-08
2.2160235e-08
7.8487639e-06
3.6297881e-08
2.1460144e-08
7.7928241e-06
3.5145171e-08
2.0794561e-08
7.7386083e-06
3.4054665e-08
2.0161132e-08
7.6860293e-06
3.3021355e-08
1.9557661e-08
7.6350062e-06
3.2040808e-08
1.8982243e-08
7.5854641e-06
3.1109069e-08
1.8433067e-08
7.537333e-06
3.0222632e-08
1.7908473e-08
7.4905478e-06
2.9378234e-08
1.7407017e-08
7.4450476e-06
2.8572989e-08
1.6927194e-08
7.4007755e-06
2.7804236e-08
1.6467817e-08
7.3576783e-06
2.7069606e-08
1.6027662e-08
7.3157056e-06
2.6367056e-08
1.5605607e-08
7.2748103e-06
2.5694659e-08
1.5200666e-08
7.2349479e-06
2.5050588e-08
1.4811816e-08
7.1960766e-06
2.443309e-08
1.4438186e-08
7.158157e-06
2.384068e-08
1.407892e-08
7.1211518e-06
2.3271923e-08
1.3733282e-08
7.0850258e-06
2.2725484e-08
1.3400517e-08
7.0497456e-06
2.2200204e-08
1.307995e-08
7.0152798e-06
2.1694932e-08
1.2770903e-08
6.9815985e-06
2.12086e-08
1.2472794e-08
6.9486733e-06
2.0740229e-08
1.2184941e-08
6.9164775e-06
2.0288981e-08
1.1906806e-08
6.8849857e-06
1.985394e-08
1.1637841e-08
6.8541739e-06
1.9434343e-08
1.1377454e-08
6.8240193e-06
1.9029454e-08
1.1125128e-08
6.7945006e-06
1.8638524e-08
1.0880228e-08
6.7655975e-06
1.8260759e-08
1.06423e-08
6.7372912e-06
1.7895528e-08
1.0410762e-08
6.709564e-06
1.7542103e-08
1.0185082e-08
6.6823995e-06
1.7199613e-08
9.9648584e-09
6.6557824e-06
1.6867251e-08
9.7498066e-09
6.6296983e-06
1.654411e-08
9.5400093e-09
6.604133e-06
1.6229249e-08
9.3359896e-09
6.5790714e-06
1.5921979e-08
9.1396845e-09
6.554494e-06
1.5622322e-08
8.9550945e-09
6.5303708e-06
1.5332549e-08
8.7906769e-09
6.5066467e-06
1.5060422e-08
8.6636175e-09
6.4832094e-06
1.4827779e-08
8.6095061e-09
6.4598103e-06
1.4693063e-08
8.7060098e-09
6.4358387e-06
1.4826396e-08
9.145148e-09
6.4096302e-06
1.5741736e-08
1.0466765e-08
6.3782854e-06
1.8026542e-08
1.3318243e-08
3.2300222e-08
2.7923551e-08
0.00010646494
4.1872385e-06
6.4599816e-06
0.0001002019
5.6954179e-06
6.6231353e-06
9.3659588e-05
5.7790388e-06
6.2744098e-06
8.7011589e-05
5.6514782e-06
6.0369387e-06
8.0422927e-05
5.3669119e-06
5.7173941e-06
7.4094022e-05
4.9022832e-06
5.3063862e-06
6.8167026e-05
4.3278135e-06
4.8516272e-06
6.2722565e-05
3.717891e-06
4.387032e-06
5.7799049e-05
3.1243144e-06
3.9337144e-06
5.3403345e-05
2.5820689e-06
3.5063329e-06
4.9517402e-05
2.1121062e-06
3.1138299e-06
4.6105483e-05
1.7220197e-06
2.7597474e-06
4.3121558e-05
1.4089355e-06
2.4437429e-06
4.0515558e-05
1.1637552e-06
2.163346e-06
3.8237948e-05
9.7485853e-07
1.9152336e-06
3.6242683e-05
8.3055976e-07
1.6959573e-06
3.4488759e-05
7.20437e-07
1.5022849e-06
3.2940716e-05
6.3586297e-07
1.3313172e-06
3.1568463e-05
5.7005007e-07
1.1804931e-06
3.0346733e-05
5.1784898e-07
1.0475522e-06
2.9254398e-05
4.7545952e-07
9.3049033e-07
2.8273782e-05
4.4013955e-07
8.2752022e-07
2.7390054e-05
4.0994894e-07
7.3704008e-07
2.6590699e-05
3.8353956e-07
6.5760856e-07
2.5865102e-05
3.5998888e-07
5.8793075e-07
2.5204197e-05
3.3867633e-07
5.2684263e-07
2.4600205e-05
3.1918358e-07
4.7330348e-07
2.4046429e-05
3.0120191e-07
4.2639017e-07
2.3537072e-05
2.8455208e-07
3.8526714e-07
2.3067119e-05
2.6911102e-07
3.4918242e-07
2.2632208e-05
2.5478166e-07
3.1747786e-07
2.2228528e-05
2.4147382e-07
2.8959533e-07
2.1852744e-05
2.2911074e-07
2.6504124e-07
2.1501947e-05
2.1762895e-07
2.4337256e-07
2.1173591e-05
2.0696955e-07
2.2420573e-07
2.0865444e-05
1.970757e-07
2.0720868e-07
2.0575549e-05
1.8789254e-07
1.9209397e-07
2.0302183e-05
1.7936722e-07
1.7861344e-07
2.0043829e-05
1.7144906e-07
1.6655322e-07
1.979915e-05
1.640898e-07
1.5572945e-07
1.956696e-05
1.5724382e-07
1.4598403e-07
1.934621e-05
1.5086892e-07
1.3718218e-07
1.9135969e-05
1.449265e-07
1.2920883e-07
1.8935407e-05
1.3937903e-07
1.2196305e-07
1.8743783e-05
1.3419228e-07
1.1535764e-07
1.8560435e-05
1.2933507e-07
1.0931728e-07
1.8384766e-05
1.2477907e-07
1.0377715e-07
1.8216241e-05
1.2049852e-07
9.8681304e-08
1.8054377e-05
1.1647015e-07
9.398133e-08
1.7898734e-05
1.1267295e-07
8.9635432e-08
1.7748917e-05
1.0908823e-07
8.5607014e-08
1.7604563e-05
1.0570006e-07
8.1862434e-08
1.7465345e-05
1.0249338e-07
7.8373264e-08
1.7330962e-05
9.9452982e-08
7.5116967e-08
1.7201138e-05
9.6564377e-08
7.2072708e-08
1.7075619e-05
9.3816668e-08
6.9221156e-08
1.695417e-05
9.1201109e-08
6.6545093e-08
1.6836577e-05
8.8709129e-08
6.4029527e-08
1.6722638e-05
8.6331944e-08
6.1661037e-08
1.661217e-05
8.406176e-08
5.9427695e-08
1.6505001e-05
8.1891522e-08
5.7318812e-08
1.640097e-05
7.9814923e-08
5.5324813e-08
1.6299929e-05
7.782617e-08
5.3437117e-08
1.620174e-05
7.5919839e-08
5.1647879e-08
1.6106272e-05
7.4091008e-08
4.995009e-08
1.6013404e-05
7.2335003e-08
4.833737e-08
1.5923022e-05
7.0647745e-08
4.6803884e-08
1.5835019e-05
6.9025709e-08
4.534425e-08
1.5749294e-05
6.7465505e-08
4.3953672e-08
1.5665753e-05
6.5963779e-08
4.2627688e-08
1.5584307e-05
6.451736e-08
4.1362157e-08
1.5504871e-05
6.3123435e-08
4.0153344e-08
1.5427365e-05
6.1779334e-08
3.8997783e-08
1.5351716e-05
6.0482535e-08
3.7892276e-08
1.5277852e-05
5.9230846e-08
3.6833845e-08
1.5205705e-05
5.802199e-08
3.5819733e-08
1.5135212e-05
5.685403e-08
3.4847397e-08
1.5066313e-05
5.5724996e-08
3.3914377e-08
1.499895e-05
5.4633116e-08
3.3018417e-08
1.493307e-05
5.3576715e-08
3.2157441e-08
1.4868621e-05
5.2554171e-08
3.1329416e-08
1.4805554e-05
5.1563967e-08
3.053242e-08
1.4743823e-05
5.0604505e-08
2.976464e-08
1.4683385e-05
4.9674292e-08
2.9024369e-08
1.4624199e-05
4.8771835e-08
2.830987e-08
1.4566226e-05
4.7895451e-08
2.7619583e-08
1.4509431e-05
4.7043481e-08
2.6951992e-08
1.4453778e-05
4.6214097e-08
2.6305779e-08
1.4399237e-05
4.5405395e-08
2.5679908e-08
1.4345777e-05
4.4615702e-08
2.5073772e-08
1.4293367e-05
4.3844258e-08
2.4487709e-08
1.4241972e-05
4.3092859e-08
2.3923735e-08
1.4191548e-05
4.2369879e-08
2.338715e-08
1.4142019e-05
4.1699268e-08
2.2889657e-08
1.4093249e-05
4.1141627e-08
2.2456617e-08
1.4044951e-05
4.0844649e-08
2.2146533e-08
1.3996485e-05
4.1169214e-08
2.2123045e-08
1.3946229e-05
4.30123e-08
2.2985381e-08
1.389015e-05
4.854025e-08
2.5565814e-08
6.3281551e-08
5.0000849e-08
0.00010603565
2.7876425e-06
6.4750379e-06
0.00010074799
4.4145413e-06
6.5685292e-06
9.5493515e-05
4.8594028e-06
6.1741158e-06
9.0256432e-05
4.930369e-06
5.9581921e-06
8.5101366e-05
4.8311767e-06
5.6908011e-06
8.0102875e-05
4.5561761e-06
5.3445981e-06
7.5322251e-05
4.1469521e-06
4.9614853e-06
7.0803266e-05
3.6678926e-06
4.5689837e-06
6.6576264e-05
3.1701903e-06
4.1811255e-06
6.2660725e-05
2.6900109e-06
3.8075976e-06
5.9065443e-05
2.2519318e-06
3.4554566e-06
5.5788936e-05
1.8697304e-06
3.1287957e-06
5.2820978e-05
1.5477473e-06
2.8291458e-06
5.014479e-05
1.2836302e-06
2.5563139e-06
4.7739304e-05
1.07123e-06
2.309114e-06
4.5581183e-05
9.0281509e-07
2.0858661e-06
4.3646423e-05
7.7048781e-07
1.884709e-06
4.1911533e-05
6.6697375e-07
1.7037792e-06
4.0354306e-05
5.8598198e-07
1.541295e-06
3.8954268e-05
5.2230225e-07
1.3955849e-06
3.769288e-05
4.7175607e-07
1.265091e-06
3.6553576e-05
4.3107984e-07
1.1483634e-06
3.552169e-05
3.9778206e-07
1.0440533e-06
3.4584322e-05
3.6999883e-07
9.5090831e-07
3.3730181e-05
3.4635985e-07
8.6777021e-07
3.2949411e-05
3.2587763e-07
7.9356873e-07
3.2233419e-05
3.0784048e-07
7.2733485e-07
3.157471e-05
2.9172986e-07
6.6818101e-07
3.0966769e-05
2.7719266e-07
6.1530126e-07
3.0403928e-05
2.6398101e-07
5.6797019e-07
2.9881258e-05
2.5190847e-07
5.2554315e-07
2.9394455e-05
2.4082714e-07
4.8745002e-07
2.8939761e-05
2.3062159e-07
4.5318325e-07
2.8513895e-05
2.2120154e-07
4.2229386e-07
2.8113985e-05
2.1249196e-07
3.9438675e-07
2.7737518e-05
2.0442798e-07
3.691149e-07
2.7382285e-05
1.9695194e-07
3.4617382e-07
2.7046344e-05
1.9001175e-07
3.2529682e-07
2.6727982e-05
1.8355994e-07
3.0625044e-07
2.6425689e-05
1.7755276e-07
2.8883084e-07
2.6138123e-05
1.7195002e-07
2.7285983e-07
2.5864094e-05
1.6671514e-07
2.5818184e-07
2.5602546e-05
1.6181453e-07
2.4466091e-07
2.535253e-05
1.5721706e-07
2.3217766e-07
2.51132e-05
1.5289443e-07
2.2062727e-07
2.4883797e-05
1.4882098e-07
2.0991773e-07
2.4663634e-05
1.449737e-07
1.9996812e-07
2.4452094e-05
1.4133182e-07
1.9070706e-07
2.4248615e-05
1.3787697e-07
1.8207151e-07
2.405269e-05
1.3459268e-07
1.7400571e-07
2.3863854e-05
1.3146463e-07
1.664599e-07
2.3681684e-05
1.2848061e-07
1.5938925e-07
2.3505794e-05
1.2562923e-07
1.527541e-07
2.3335829e-05
1.2289868e-07
1.465197e-07
2.3171462e-05
1.2027634e-07
1.4065458e-07
2.3012394e-05
1.1775476e-07
1.3513019e-07
2.2858345e-05
1.153297e-07
1.2992042e-07
2.2709057e-05
1.1299537e-07
1.2500175e-07
2.2564291e-05
1.1074517e-07
1.2035288e-07
2.2423824e-05
1.0857344e-07
1.1595457e-07
2.2287451e-05
1.0647548e-07
1.1178924e-07
2.2154978e-05
1.0444701e-07
1.0784078e-07
2.2026226e-05
1.0248419e-07
1.0409457e-07
2.1901025e-05
1.0058353e-07
1.0053715e-07
2.1779218e-05
9.8741553e-08
9.7156152e-08
2.1660658e-05
9.6954897e-08
9.3940264e-08
2.1545205e-05
9.5221285e-08
9.0879042e-08
2.1432729e-05
9.3538814e-08
8.7962816e-08
2.1323107e-05
9.1905318e-08
8.5182568e-08
2.1216222e-05
9.0318496e-08
8.2530155e-08
2.1111965e-05
8.8776407e-08
7.9997884e-08
2.1010233e-05
8.7277102e-08
7.7578655e-08
2.0910927e-05
8.5818949e-08
7.5265862e-08
2.0813956e-05
8.4400311e-08
7.3053428e-08
2.0719232e-05
8.3019683e-08
7.093564e-08
2.0626671e-05
8.1675631e-08
6.8907187e-08
2.0536195e-05
8.0366792e-08
6.6963138e-08
2.0447729e-05
7.9091986e-08
6.5098797e-08
2.0361203e-05
7.7849807e-08
6.3309762e-08
2.0276548e-05
7.6639212e-08
6.1592029e-08
2.0193702e-05
7.5458993e-08
5.9941727e-08
2.0112602e-05
7.4307957e-08
5.8355228e-08
2.0033193e-05
7.3184933e-08
5.6829041e-08
1.9955419e-05
7.208862e-08
5.5359956e-08
1.9879228e-05
7.1017634e-08
5.3944848e-08
1.9804572e-05
6.9970445e-08
5.2580716e-08
1.9731406e-05
6.8945246e-08
5.1264799e-08
1.9659685e-05
6.7940114e-08
4.9994392e-08
1.9589371e-05
6.6953022e-08
4.876706e-08
1.9520423e-05
6.5982342e-08
4.7580555e-08
1.9452807e-05
6.5028024e-08
4.6433091e-08
1.9386481e-05
6.4094094e-08
4.5323731e-08
1.9321404e-05
6.3194699e-08
4.4253093e-08
1.9257511e-05
6.2366332e-08
4.3225244e-08
1.9194705e-05
6.1695174e-08
4.2253152e-08
1.9132798e-05
6.1374093e-08
4.1377405e-08
1.9071394e-05
6.1822445e-08
4.0750667e-08
1.9009424e-05
6.3924727e-08
4.1057624e-08
1.8944661e-05
6.93047e-08
4.3998843e-08
7.9170972e-08
7.466156e-08
0.0001054937
1.9169871e-06
6.4880407e-06
0.00010005365
3.2729596e-06
6.5816334e-06
9.4926077e-05
3.8288995e-06
6.1580776e-06
8.9946373e-05
3.9838109e-06
5.9262629e-06
8.5163276e-05
3.9595077e-06
5.6547657e-06
8.0619137e-05
3.7899368e-06
5.3103784e-06
7.6329462e-05
3.5015547e-06
4.9350725e-06
7.230016e-05
3.1412013e-06
4.5559928e-06
6.8534206e-05
2.7514802e-06
4.1846641e-06
6.5032983e-05
2.3633493e-06
3.8278852e-06
6.1795789e-05
1.9984143e-06
3.490711e-06
5.8818843e-05
1.6703759e-06
3.176301e-06
5.6094718e-05
1.3858294e-06
2.8860429e-06
5.3612488e-05
1.1457944e-06
2.6200649e-06
5.1358373e-05
9.4764116e-07
2.3777043e-06
4.9316593e-05
7.8676785e-07
2.1578272e-06
4.7470246e-05
6.5779547e-07
1.9590391e-06
4.5802069e-05
5.5532541e-07
1.7798252e-06
4.4295042e-05
4.7437114e-07
1.6186378e-06
4.293283e-05
4.1056668e-07
1.473948e-06
4.1700078e-05
3.6023236e-07
1.3442759e-06
4.0582591e-05
3.2035744e-07
1.2282094e-06
3.956742e-05
2.8853737e-07
1.1244154e-06
3.8642881e-05
2.6289066e-07
1.0316467e-06
3.7798527e-05
2.4196985e-07
9.4874402e-07
3.7025076e-05
2.2467705e-07
8.7465171e-07
3.6314324e-05
2.10189e-07
8.084041e-07
3.5659057e-05
1.9788607e-07
7.491104e-07
3.5052961e-05
1.8731585e-07
6.959728e-07
3.4490519e-05
1.7814874e-07
6.4827381e-07
3.3966922e-05
1.7013171e-07
6.0537441e-07
3.3477973e-05
1.6306729e-07
5.6670866e-07
3.3020016e-05
1.5680299e-07
5.3177541e-07
3.2589865e-05
1.5122056e-07
5.0013242e-07
3.218474e-05
1.4622566e-07
4.7139138e-07
3.1802215e-05
1.4174075e-07
4.4521231e-07
3.1440168e-05
1.3770094e-07
4.212981e-07
3.1096739e-05
1.3405096e-07
3.9938924e-07
3.0770297e-05
1.3074296e-07
3.7925955e-07
3.0459402e-05
1.2773515e-07
3.6071192e-07
3.0162787e-05
1.2499092e-07
3.4357476e-07
2.9879325e-05
1.2247786e-07
3.2769852e-07
2.960802e-05
1.2016733e-07
3.1295271e-07
2.934798e-05
1.1803381e-07
2.9922352e-07
2.9098408e-05
1.1605463e-07
2.8641136e-07
2.885859e-05
1.1420983e-07
2.7442906e-07
2.8627882e-05
1.1248195e-07
2.6319999e-07
2.8405701e-05
1.1085563e-07
2.5265685e-07
2.819152e-05
1.0931759e-07
2.4274021e-07
2.7984859e-05
1.0785652e-07
2.3339754e-07
2.7785279e-05
1.0646281e-07
2.245821e-07
2.7592378e-05
1.0512871e-07
2.1625214e-07
2.740579e-05
1.0384734e-07
2.0837032e-07
2.7225174e-05
1.0261118e-07
2.0090358e-07
2.705022e-05
1.014075e-07
1.9382256e-07
2.6880641e-05
1.0023381e-07
1.8710038e-07
2.6716166e-05
9.9092368e-08
1.8071221e-07
2.6556546e-05
9.798002e-08
1.7463558e-07
2.6401548e-05
9.6892534e-08
1.6885014e-07
2.6250957e-05
9.5827099e-08
1.6333745e-07
2.610457e-05
9.4781684e-08
1.5808045e-07
2.5962199e-05
9.375472e-08
1.5306361e-07
2.5823666e-05
9.2744867e-08
1.482726e-07
2.5688804e-05
9.1751013e-08
1.4369412e-07
2.5557458e-05
9.0771773e-08
1.3931597e-07
2.5429481e-05
8.9805171e-08
1.3512692e-07
2.5304734e-05
8.8851459e-08
1.3111646e-07
2.5183087e-05
8.7911204e-08
1.2727469e-07
2.5064416e-05
8.6983908e-08
1.2359241e-07
2.4948604e-05
8.606891e-08
1.2006119e-07
2.4835542e-05
8.5165789e-08
1.1667302e-07
2.4725124e-05
8.4274282e-08
1.1342044e-07
2.4617252e-05
8.3394277e-08
1.1029659e-07
2.4511832e-05
8.2525468e-08
1.0729478e-07
2.4408775e-05
8.1667772e-08
1.04409e-07
2.4307997e-05
8.0820981e-08
1.0163343e-07
2.4209416e-05
7.998504e-08
9.8962671e-08
2.4112956e-05
7.9159769e-08
9.6391578e-08
2.4018546e-05
7.8345027e-08
9.3915305e-08
2.3926115e-05
7.7540698e-08
9.1529291e-08
2.3835598e-05
7.6746562e-08
8.9229243e-08
2.3746933e-05
7.596233e-08
8.7011033e-08
2.366006e-05
7.5187652e-08
8.4870703e-08
2.3574922e-05
7.4421973e-08
8.2804538e-08
2.3491466e-05
7.3664643e-08
8.0808916e-08
2.3409641e-05
7.291462e-08
7.8880365e-08
2.33294e-05
7.2170683e-08
7.7015521e-08
2.3250698e-05
7.1431312e-08
7.5210988e-08
2.3173493e-05
7.069487e-08
7.3463626e-08
2.3097745e-05
6.9960188e-08
7.1770058e-08
2.3023418e-05
6.922799e-08
7.0127032e-08
2.2950477e-05
6.8503504e-08
6.8531195e-08
2.2878889e-05
6.7802868e-08
6.6979721e-08
2.2808619e-05
6.7165059e-08
6.5471582e-08
2.2739625e-05
6.6675243e-08
6.401336e-08
2.267185e-05
6.6507078e-08
6.2642305e-08
2.2605149e-05
6.6990729e-08
6.1532364e-08
2.2538888e-05
6.8686054e-08
6.1499929e-08
2.2471121e-05
7.2226959e-08
6.4845116e-08
7.6722863e-08
9.8461334e-08
0.0001051979
1.3340885e-06
6.4961221e-06
9.9496561e-05
2.3731022e-06
6.6011947e-06
9.4262459e-05
2.9019224e-06
6.1610799e-06
8.9251186e-05
3.0856642e-06
5.9094196e-06
8.4493497e-05
3.0947347e-06
5.6224614e-06
8.0033635e-05
2.9846656e-06
5.2651341e-06
7.5876907e-05
2.7790155e-06
4.8792667e-06
7.2014635e-05
2.5106844e-06
4.4927895e-06
6.8436293e-05
2.2128728e-06
4.1169489e-06
6.5131387e-05
1.9107258e-06
3.7575291e-06
6.208941e-05
1.621732e-06
3.4186596e-06
5.9299432e-05
1.3573877e-06
3.1029661e-06
5.6749589e-05
1.1240344e-06
2.8116386e-06
5.4426788e-05
9.2377943e-07
2.5448158e-06
5.2316754e-05
7.5572797e-07
2.3019466e-06
5.0404313e-05
6.1717855e-07
2.0820302e-06
4.8673788e-05
5.0454353e-07
1.8837772e-06
4.7109414e-05
4.1397181e-07
1.7057274e-06
4.5695713e-05
3.4173648e-07
1.5463363e-06
4.4417792e-05
2.8445144e-07
1.4040359e-06
4.3261575e-05
2.3917113e-07
1.2772781e-06
4.2213952e-05
2.0341504e-07
1.1645652e-06
4.1262871e-05
1.7514746e-07
1.0644719e-06
4.039737e-05
1.5273235e-07
9.7565897e-07
3.9607583e-05
1.348753e-07
8.9688144e-07
3.8884688e-05
1.2055566e-07
8.2701639e-07
3.8220848e-05
1.0901093e-07
7.6501853e-07
3.7609155e-05
9.9633835e-08
7.0994485e-07
3.7043542e-05
9.1977433e-08
6.6095088e-07
3.6518702e-05
8.5705815e-08
6.1728288e-07
3.6030009e-05
8.0552393e-08
5.7827309e-07
3.5573433e-05
7.6308291e-08
5.4333412e-07
3.5145475e-05
7.2811269e-08
5.1195028e-07
3.4743091e-05
6.9934144e-08
4.8367021e-07
3.4363641e-05
6.7575434e-08
4.5810066e-07
3.4004828e-05
6.565287e-08
4.3489997e-07
3.3664659e-05
6.4098594e-08
4.1377211e-07
3.3341393e-05
6.2855896e-08
3.9446095e-07
3.3033513e-05
6.187703e-08
3.767453e-07
3.2739693e-05
6.1121117e-08
3.6043425e-07
3.2458768e-05
6.0553055e-08
3.4536327e-07
3.2189712e-05
6.014264e-08
3.3139055e-07
3.1931622e-05
5.9863663e-08
3.1839374e-07
3.1683696e-05
5.9693147e-08
3.0626735e-07
3.1445219e-05
5.9611259e-08
2.9492011e-07
3.1215555e-05
5.9600622e-08
2.8427313e-07
3.0994132e-05
5.9646557e-08
2.7425807e-07
3.0780436e-05
5.9736202e-08
2.648154e-07
3.0574002e-05
5.9858688e-08
2.5589334e-07
3.0374407e-05
6.000497e-08
2.4744661e-07
3.0181267e-05
6.0167654e-08
2.3943545e-07
2.9994229e-05
6.0341288e-08
2.3182486e-07
2.9812971e-05
6.0521837e-08
2.2458375e-07
2.9637193e-05
6.0704479e-08
2.1768455e-07
2.9466629e-05
6.0867284e-08
2.1110458e-07
2.9301024e-05
6.1017002e-08
2.0482181e-07
2.914014e-05
6.1160855e-08
1.9881569e-07
2.8983756e-05
6.1294968e-08
1.9306837e-07
2.8831669e-05
6.1415497e-08
1.8756385e-07
2.8683688e-05
6.1520961e-08
1.8228763e-07
2.8539633e-05
6.1610575e-08
1.7722636e-07
2.8399336e-05
6.1683779e-08
1.7236784e-07
2.8262639e-05
6.1740491e-08
1.677009e-07
2.8129394e-05
6.1780649e-08
1.632152e-07
2.7999461e-05
6.180388e-08
1.589012e-07
2.7872709e-05
6.1807328e-08
1.5475034e-07
2.7749012e-05
6.1793527e-08
1.5075441e-07
2.7628253e-05
6.1764786e-08
1.4690556e-07
2.7510319e-05
6.1720987e-08
1.4319663e-07
2.7395105e-05
6.1662119e-08
1.3962084e-07
2.728251e-05
6.1588617e-08
1.3617201e-07
2.7172439e-05
6.1501062e-08
1.3284422e-07
2.7064802e-05
6.139997e-08
1.2963195e-07
2.6959511e-05
6.1285937e-08
1.2652993e-07
2.6856486e-05
6.1159526e-08
1.2353325e-07
2.6755649e-05
6.1021289e-08
1.2063732e-07
2.6656924e-05
6.0871855e-08
1.1783768e-07
2.6560242e-05
6.0711689e-08
1.1513014e-07
2.6465535e-05
6.0541358e-08
1.1251077e-07
2.6372738e-05
6.036129e-08
1.0997576e-07
2.6281791e-05
6.0171949e-08
1.0752158e-07
2.6192636e-05
5.9973552e-08
1.051447e-07
2.6105215e-05
5.9766286e-08
1.0284181e-07
2.6019477e-05
5.955024e-08
1.0060974e-07
2.5935371e-05
5.9325162e-08
9.844528e-08
2.585285e-05
5.9090499e-08
9.6345384e-08
2.5771868e-05
5.8845493e-08
9.4306917e-08
2.5692384e-05
5.8588985e-08
9.2326732e-08
2.5614357e-05
5.8319794e-08
9.0401431e-08
2.5537753e-05
5.8037057e-08
8.8527332e-08
2.5462539e-05
5.7741632e-08
8.6700188e-08
2.5388689e-05
5.7438391e-08
8.4915159e-08
2.5316184e-05
5.7141434e-08
8.3166644e-08
2.5245017e-05
5.6882568e-08
8.1449621e-08
2.51752e-05
5.6726012e-08
7.9765837e-08
2.510677e-05
5.678788e-08
7.8149201e-08
2.5039729e-05
5.725158e-08
7.6780968e-08
2.4973573e-05
5.8330949e-08
7.6510243e-08
2.4906079e-05
5.9989509e-08
7.9732167e-08
6.0715029e-08
1.1287823e-07
0.00010503672
9.0789373e-07
6.5005614e-06
9.9140653e-05
1.6524914e-06
6.6166802e-06
9.3788329e-05
2.0825242e-06
6.1717217e-06
8.8708526e-05
2.2549373e-06
5.91053e-06
8.3909682e-05
2.278404e-06
5.6151748e-06
7.9437109e-05
2.2074821e-06
5.2497564e-06
7.5296201e-05
2.0645348e-06
4.8553893e-06
7.1474034e-05
1.8722543e-06
4.460597e-06
6.7955013e-05
1.6547667e-06
4.0771269e-06
6.4723621e-05
1.4313505e-06
3.7107669e-06
6.1764423e-05
1.2154297e-06
3.3655007e-06
5.9062056e-05
1.015864e-06
3.0438911e-06
5.6601108e-05
8.3782742e-07
2.7471548e-06
5.4365944e-05
6.8344646e-07
2.475497e-06
5.2340648e-05
5.525853e-07
2.2284383e-06
5.0509125e-05
4.436655e-07
2.0050361e-06
4.8855299e-05
3.5433457e-07
1.8040352e-06
4.7363353e-05
2.819359e-07
1.6239821e-06
4.6017963e-05
2.2381347e-07
1.4633127e-06
4.4804503e-05
1.7749384e-07
1.3204181e-06
4.3709199e-05
1.4078089e-07
1.1936935e-06
4.2719248e-05
1.1179155e-07
1.081575e-06
4.1822875e-05
8.8954518e-08
9.8256582e-07
4.1009364e-05
7.0988029e-08
8.9525471e-07
4.0269054e-05
5.6861834e-08
8.183238e-07
3.9593306e-05
4.5719125e-08
7.5058478e-07
3.8974405e-05
3.6977859e-08
6.9093436e-07
3.8405585e-05
3.0067383e-08
6.3838629e-07
3.7880869e-05
2.4650864e-08
5.9204242e-07
3.7395029e-05
2.0439978e-08
5.5110606e-07
3.6943514e-05
1.7190267e-08
5.1487716e-07
3.6522366e-05
1.4716743e-08
4.8273959e-07
3.6128148e-05
1.2874782e-08
4.5415392e-07
3.5757883e-05
1.1549898e-08
4.2864942e-07
3.5408991e-05
1.0650781e-08
4.0581705e-07
3.5079238e-05
1.0103628e-08
3.853023e-07
3.4766689e-05
9.8482569e-09
3.6679878e-07
3.4469668e-05
9.8350943e-09
3.5004235e-07
3.4186716e-05
1.0022934e-08
3.3480554e-07
3.3916567e-05
1.0377036e-08
3.2089286e-07
3.3658116e-05
1.0868065e-08
3.081366e-07
3.3410395e-05
1.147098e-08
2.9639282e-07
3.3172556e-05
1.2164231e-08
2.8553824e-07
3.2943852e-05
1.2929306e-08
2.7546717e-07
3.2723625e-05
1.3750159e-08
2.6608892e-07
3.2511286e-05
1.4613084e-08
2.5732572e-07
3.2306316e-05
1.5506255e-08
2.4911067e-07
3.2108246e-05
1.6419596e-08
2.413862e-07
3.1916658e-05
1.734465e-08
2.3410268e-07
3.1731171e-05
1.82743e-08
2.2721713e-07
3.1551444e-05
1.920318e-08
2.2069213e-07
3.1377162e-05
2.0127727e-08
2.1449507e-07
3.1208038e-05
2.1048671e-08
2.085968e-07
3.10438e-05
2.1972778e-08
2.0297053e-07
3.0884232e-05
2.282785e-08
1.9760738e-07
3.0729103e-05
2.3662963e-08
1.9248229e-07
3.05782e-05
2.4490016e-08
1.8757382e-07
3.0431331e-05
2.529628e-08
1.8286762e-07
3.0288318e-05
2.6077988e-08
1.7835073e-07
3.0148994e-05
2.68343e-08
1.7401105e-07
3.0013202e-05
2.7564706e-08
1.6983753e-07
2.9880797e-05
2.8268976e-08
1.6582025e-07
2.975164e-05
2.8947425e-08
1.6195014e-07
2.96256e-05
2.9600778e-08
1.5821897e-07
2.9502557e-05
3.0228565e-08
1.5461918e-07
2.9382396e-05
3.0823573e-08
1.5114465e-07
2.9265007e-05
3.1393099e-08
1.4778876e-07
2.9150287e-05
3.1939572e-08
1.4454536e-07
2.9038137e-05
3.2461862e-08
1.4140902e-07
2.8928465e-05
3.2960056e-08
1.383746e-07
2.8821181e-05
3.3434715e-08
1.3543748e-07
2.8716203e-05
3.388635e-08
1.3259328e-07
2.8613449e-05
3.4315554e-08
1.2983786e-07
2.8512845e-05
3.4722863e-08
1.2716738e-07
2.8414317e-05
3.5108985e-08
1.2457817e-07
2.8317797e-05
3.5474411e-08
1.2206681e-07
2.8223219e-05
3.5819895e-08
1.1963009e-07
2.813052e-05
3.6145909e-08
1.1726491e-07
2.803964e-05
3.6453101e-08
1.1496842e-07
2.7950522e-05
3.6741891e-08
1.1273774e-07
2.7863111e-05
3.7012826e-08
1.105703e-07
2.7777354e-05
3.7266276e-08
1.0846344e-07
2.7693204e-05
3.750247e-08
1.0641475e-07
2.761061e-05
3.7721565e-08
1.0442175e-07
2.752953e-05
3.7923541e-08
1.0248202e-07
2.744992e-05
3.8107988e-08
1.0059305e-07
2.7371738e-05
3.8274306e-08
9.8752294e-08
2.7294949e-05
3.842157e-08
9.6956902e-08
2.7219516e-05
3.8548753e-08
9.5203651e-08
2.714541e-05
3.8655127e-08
9.3488626e-08
2.7072603e-05
3.8741143e-08
9.1806959e-08
2.7001079e-05
3.8810293e-08
9.0152299e-08
2.6930832e-05
3.8872136e-08
8.8516591e-08
2.6861876e-05
3.8947421e-08
8.6890534e-08
2.679426e-05
3.9073547e-08
8.5269198e-08
2.6728065e-05
3.9306971e-08
8.3675951e-08
2.6663337e-05
3.9708346e-08
8.2271189e-08
2.659956e-05
4.0272005e-08
8.1836191e-08
2.6534295e-05
4.0698025e-08
8.4555715e-08
3.9620838e-08
1.150713e-07
0.00010494757
5.6811082e-07
6.5033076e-06
9.8925416e-05
1.0462983e-06
6.6283517e-06
9.3480449e-05
1.3439845e-06
6.1835066e-06
8.8341777e-05
1.4751324e-06
5.9184763e-06
8.3502084e-05
1.4993911e-06
5.6187065e-06
7.9004057e-05
1.4572411e-06
5.2482679e-06
7.4853978e-05
1.3667382e-06
4.8478757e-06
7.1037378e-05
1.2423973e-06
4.4464569e-06
6.7536063e-05
1.0997693e-06
4.0563127e-06
6.4331998e-05
9.5192359e-07
3.683491e-06
6.1407318e-05
8.0805755e-07
3.3320524e-06
5.8744339e-05
6.7422202e-07
3.0046209e-06
5.6325632e-05
5.5404397e-07
2.7024907e-06
5.4133973e-05
4.4916748e-07
2.4259383e-06
5.2152298e-05
3.59724e-07
2.174536e-06
5.0363747e-05
2.8484512e-07
1.9473717e-06
4.875178e-05
2.2310004e-07
1.7432015e-06
4.7300339e-05
1.7281166e-07
1.5605647e-06
4.5994012e-05
1.3226573e-07
1.3978748e-06
4.4818177e-05
9.9840065e-08
1.2534891e-06
4.3759121e-05
7.407561e-08
1.1257614e-06
4.2804123e-05
5.3707633e-08
1.0130814e-06
4.1941503e-05
3.7671236e-08
9.1390378e-07
4.1160627e-05
2.5096458e-08
8.267673e-07
4.0451891e-05
1.5294187e-08
7.5030386e-07
3.980679e-05
7.5281601e-09
6.8329176e-07
3.9217543e-05
1.6727597e-09
6.2455204e-07
3.8677513e-05
-3.0331101e-09
5.7313079e-07
3.8180739e-05
-6.6486774e-09
5.2807357e-07
3.7722004e-05
-9.3595079e-09
4.885345e-07
3.7296777e-05
-1.1371803e-08
4.5378927e-07
3.6901112e-05
-1.2818225e-08
4.231991e-07
3.6531588e-05
-1.3805291e-08
3.962048e-07
3.6185236e-05
-1.4417489e-08
3.7231875e-07
3.5859491e-05
-1.4721889e-08
3.5111776e-07
3.5552132e-05
-1.4772624e-08
3.322358e-07
3.5261237e-05
-1.461391e-08
3.1535729e-07
3.4985143e-05
-1.4282158e-08
3.0021091e-07
3.472241e-05
-1.3807687e-08
2.8656376e-07
3.4471787e-05
-1.321588e-08
2.742163e-07
3.4232185e-05
-1.2528154e-08
2.6299768e-07
3.4002657e-05
-1.1762809e-08
2.5276169e-07
3.3782373e-05
-1.0935244e-08
2.4338335e-07
3.3570606e-05
-1.0058772e-08
2.3475558e-07
3.3366714e-05
-9.1447302e-09
2.2678672e-07
3.3170131e-05
-8.2028072e-09
2.1939831e-07
3.2980356e-05
-7.2412163e-09
2.1252299e-07
3.279694e-05
-6.2668394e-09
2.0610282e-07
3.2619482e-05
-5.2855068e-09
2.0008783e-07
3.2447623e-05
-4.3017964e-09
1.944348e-07
3.228104e-05
-3.319033e-09
1.8910587e-07
3.2119438e-05
-2.3383378e-09
1.8406735e-07
3.1962554e-05
-1.3530734e-09
1.7928646e-07
3.1810075e-05
-2.7633185e-10
1.7472766e-07
3.1661878e-05
5.8582037e-10
1.7043908e-07
3.1517732e-05
1.4356205e-09
1.6637293e-07
3.1377429e-05
2.303837e-09
1.6248959e-07
3.1240792e-05
3.1586285e-09
1.5877485e-07
3.1107656e-05
3.9969799e-09
1.5521716e-07
3.0977867e-05
4.8171981e-09
1.5180543e-07
3.0851284e-05
5.6179632e-09
1.4852967e-07
3.0727773e-05
6.3990404e-09
1.4538078e-07
3.0607209e-05
7.1609206e-09
1.4235056e-07
3.0489473e-05
7.9059656e-09
1.3943121e-07
3.037445e-05
8.6357284e-09
1.3661576e-07
3.0262049e-05
9.3206685e-09
1.3390399e-07
3.0152163e-05
9.9938117e-09
1.3128562e-07
3.0044697e-05
1.0650406e-08
1.2875511e-07
2.9939564e-05
1.1286715e-08
1.263083e-07
2.983668e-05
1.1903192e-08
1.2394086e-07
2.9735965e-05
1.2500142e-08
1.2164886e-07
2.9637345e-05
1.307789e-08
1.1942844e-07
2.9540748e-05
1.363673e-08
1.1727618e-07
2.9446105e-05
1.4177032e-08
1.1518885e-07
2.9353352e-05
1.4699163e-08
1.131634e-07
2.9262425e-05
1.5203529e-08
1.1119705e-07
2.9173268e-05
1.5690473e-08
1.0928706e-07
2.9085822e-05
1.6160386e-08
1.0743108e-07
2.9000035e-05
1.6613593e-08
1.0562665e-07
2.8915855e-05
1.705041e-08
1.0387154e-07
2.8833233e-05
1.7471121e-08
1.0216363e-07
2.8752123e-05
1.787596e-08
1.0050084e-07
2.8672479e-05
1.8265095e-08
9.8881113e-08
2.8594259e-05
1.8638543e-08
9.7302502e-08
2.8517424e-05
1.8996222e-08
9.5762939e-08
2.8441934e-05
1.9337825e-08
9.4260347e-08
2.8367753e-05
1.9662847e-08
9.2792365e-08
2.8294848e-05
1.9970492e-08
9.1356265e-08
2.8223187e-05
2.026001e-08
8.9948875e-08
2.8152746e-05
2.0530731e-08
8.8565942e-08
2.8083503e-05
2.07826e-08
8.7201813e-08
2.8015447e-05
2.1017557e-08
8.5848699e-08
2.7948582e-05
2.1240761e-08
8.4495828e-08
2.7882937e-05
2.1462758e-08
8.3129492e-08
2.7818574e-05
2.1699978e-08
8.1736534e-08
2.7755588e-05
2.1969294e-08
8.0324352e-08
2.7694014e-05
2.2266198e-08
7.9016079e-08
2.7633299e-05
2.2506304e-08
7.848066e-08
2.7571004e-05
2.2393463e-08
8.0599467e-08
2.0993106e-08
1.0779945e-07
0.00010489986
2.7443377e-07
6.5049155e-06
9.8802772e-05
5.0716636e-07
6.6362236e-06
9.329591e-05
6.5854977e-07
6.1922972e-06
8.8116302e-05
7.2902547e-07
5.9257148e-06
8.3248198e-05
7.4378816e-07