/*--------------------------------*- C++ -*----------------------------------*\
  =========                 |
  \\      /  F ield         | OpenFOAM: The Open Source CFD Toolbox
   \\    /   O peration     | Website:  https://openfoam.org
    \\  /    A nd           | Version:  7
     \\/     M anipulation  |
\*---------------------------------------------------------------------------*/
FoamFile
{
    version     2.0;
    format      ascii;
    class       surfaceScalarField;
    location    "400/water";
    object      phi;
}
// * * * * * * * * * * * * * * * * * * * * * * * * * * * * * * * * * * * * * //

dimensions      [1 0 -1 0 0 0 0];

internalField   nonuniform List<scalar> 
156660
(
9.905724e-05
6.0010402e-06
6.0528092e-06
8.6847498e-05
6.0555113e-06
6.1542307e-06
7.5687891e-05
5.5111362e-06
5.6484701e-06
6.5441704e-05
5.0404181e-06
5.2057689e-06
5.6267661e-05
4.4956436e-06
4.6783991e-06
4.8318019e-05
3.8797648e-06
4.0698777e-06
4.1624776e-05
3.2524448e-06
3.4407981e-06
3.6124897e-05
2.660462e-06
2.839417e-06
3.1692235e-05
2.1345126e-06
2.2981489e-06
2.8162841e-05
1.6926975e-06
1.8366964e-06
2.5361437e-05
1.3399933e-06
1.4614113e-06
2.3124664e-05
1.0698477e-06
1.1669256e-06
2.1315127e-05
8.6875419e-07
9.4078224e-07
1.9825714e-05
7.2110064e-07
7.6831271e-07
1.8577278e-05
6.1248247e-07
6.3595306e-07
1.7513254e-05
5.312522e-07
5.327715e-07
1.6593744e-05
4.6879725e-07
4.5071348e-07
1.5790433e-05
4.1913719e-07
3.8417384e-07
1.5082784e-05
3.7829068e-07
3.2935848e-07
1.4455417e-05
3.4367124e-07
2.8369562e-07
1.3896409e-05
3.1361407e-07
2.4539332e-07
1.339622e-05
2.870445e-07
2.1314451e-07
1.2947015e-05
2.6326032e-07
1.8594511e-07
1.2542237e-05
2.4179369e-07
1.6298463e-07
1.2176318e-05
2.2232211e-07
1.435969e-07
1.1844484e-05
2.0461481e-07
1.2721882e-07
1.1542609e-05
1.8849496e-07
1.1337976e-07
1.1267116e-05
1.7381575e-07
1.0167794e-07
1.1014892e-05
1.6046272e-07
9.1760834e-08
1.0783252e-05
1.4833966e-07
8.3300581e-08
1.0569851e-05
1.3734901e-07
7.6052122e-08
1.0372614e-05
1.2738861e-07
6.9848331e-08
1.0189731e-05
1.1836806e-07
6.4514814e-08
1.001963e-05
1.1020448e-07
5.9896619e-08
9.8609388e-06
1.0281921e-07
5.5871669e-08
9.7124595e-06
9.6137966e-08
5.2341352e-08
9.5731439e-06
9.0091177e-08
4.9224324e-08
9.4420759e-06
8.4614466e-08
4.6453573e-08
9.3184531e-06
7.9648683e-08
4.3974106e-08
9.2015723e-06
7.5139715e-08
4.1741033e-08
9.0908166e-06
7.1038153e-08
3.9717558e-08
8.9856432e-06
6.7301125e-08
3.787228e-08
8.8855708e-06
6.3894264e-08
3.6178153e-08
8.7901757e-06
6.0780078e-08
3.4614913e-08
8.6990829e-06
5.7926158e-08
3.3166647e-08
8.611959e-06
5.5303693e-08
3.1820131e-08
8.5285072e-06
5.2887421e-08
3.05644e-08
8.4484618e-06
5.065508e-08
2.9390289e-08
8.3715848e-06
4.8587033e-08
2.8290051e-08
8.2976614e-06
4.6666193e-08
2.7257239e-08
8.2264975e-06
4.487749e-08
2.6286407e-08
8.1579202e-06
4.3208784e-08
2.5368511e-08
8.0917731e-06
4.1649049e-08
2.4498061e-08
8.0279108e-06
4.0186962e-08
2.3675358e-08
7.9662006e-06
3.8812668e-08
2.2897527e-08
7.9065219e-06
3.75184e-08
2.2160234e-08
7.8487639e-06
3.6297866e-08
2.1460145e-08
7.7928241e-06
3.5145179e-08
2.0794583e-08
7.7386083e-06
3.4054674e-08
2.016117e-08
7.6860293e-06
3.3021355e-08
1.9557715e-08
7.6350062e-06
3.2040809e-08
1.8982263e-08
7.5854641e-06
3.1109063e-08
1.8433087e-08
7.537333e-06
3.0222615e-08
1.7908478e-08
7.4905478e-06
2.9378234e-08
1.7406991e-08
7.4450476e-06
2.8573007e-08
1.6927181e-08
7.4007756e-06
2.7804265e-08
1.6467788e-08
7.3576783e-06
2.7069601e-08
1.602764e-08
7.3157056e-06
2.6367041e-08
1.5605659e-08
7.2748103e-06
2.5694644e-08
1.5200669e-08
7.2349479e-06
2.5050565e-08
1.4811844e-08
7.1960766e-06
2.4433112e-08
1.4438169e-08
7.158157e-06
2.3840689e-08
1.407894e-08
7.1211518e-06
2.3271897e-08
1.3733274e-08
7.0850258e-06
2.2725499e-08
1.3400518e-08
7.0497456e-06
2.2200191e-08
1.3079922e-08
7.0152798e-06
2.1694904e-08
1.2770894e-08
6.9815985e-06
2.1208576e-08
1.2472758e-08
6.9486733e-06
2.0740225e-08
1.2184944e-08
6.9164775e-06
2.0288986e-08
1.1906825e-08
6.8849857e-06
1.9853929e-08
1.1637827e-08
6.8541739e-06
1.9434374e-08
1.1377439e-08
6.8240194e-06
1.9029441e-08
1.1125099e-08
6.7945006e-06
1.8638503e-08
1.0880236e-08
6.7655975e-06
1.8260757e-08
1.064231e-08
6.7372913e-06
1.7895551e-08
1.041075e-08
6.709564e-06
1.7542107e-08
1.0185083e-08
6.6823995e-06
1.7199622e-08
9.9648665e-09
6.6557824e-06
1.6867258e-08
9.749804e-09
6.6296983e-06
1.6544122e-08
9.539988e-09
6.6041331e-06
1.6229284e-08
9.3359971e-09
6.5790714e-06
1.5922001e-08
9.1396814e-09
6.554494e-06
1.5622352e-08
8.9550855e-09
6.5303708e-06
1.5332564e-08
8.7906455e-09
6.5066467e-06
1.5060472e-08
8.6635947e-09
6.4832094e-06
1.4827831e-08
8.6095222e-09
6.4598103e-06
1.4693077e-08
8.7060364e-09
6.4358388e-06
1.4826423e-08
9.1451405e-09
6.4096303e-06
1.5741774e-08
1.0466753e-08
6.3782855e-06
1.802659e-08
1.331821e-08
3.2300195e-08
2.7923536e-08
0.00010646494
4.1872385e-06
6.4599816e-06
0.0001002019
5.695418e-06
6.6231353e-06
9.3659588e-05
5.7790389e-06
6.2744098e-06
8.7011589e-05
5.6514782e-06
6.0369387e-06
8.0422927e-05
5.3669119e-06
5.7173941e-06
7.4094022e-05
4.9022832e-06
5.3063862e-06
6.8167026e-05
4.3278135e-06
4.8516272e-06
6.2722565e-05
3.717891e-06
4.387032e-06
5.7799049e-05
3.1243144e-06
3.9337145e-06
5.3403345e-05
2.5820688e-06
3.5063329e-06
4.9517402e-05
2.1121062e-06
3.1138299e-06
4.6105482e-05
1.7220197e-06
2.7597474e-06
4.3121558e-05
1.4089355e-06
2.4437429e-06
4.0515558e-05
1.1637552e-06
2.163346e-06
3.8237948e-05
9.7485853e-07
1.9152336e-06
3.6242683e-05
8.3055974e-07
1.6959573e-06
3.4488759e-05
7.2043698e-07
1.5022849e-06
3.2940716e-05
6.3586292e-07
1.3313172e-06
3.1568463e-05
5.7005004e-07
1.1804931e-06
3.0346733e-05
5.1784896e-07
1.0475522e-06
2.9254398e-05
4.7545955e-07
9.3049034e-07
2.8273782e-05
4.4013957e-07
8.2752025e-07
2.7390054e-05
4.099489e-07
7.3704008e-07
2.6590699e-05
3.8353956e-07
6.5760857e-07
2.5865102e-05
3.599889e-07
5.8793071e-07
2.5204197e-05
3.3867629e-07
5.268426e-07
2.4600205e-05
3.191836e-07
4.7330348e-07
2.4046429e-05
3.012019e-07
4.2639015e-07
2.3537072e-05
2.8455204e-07
3.8526714e-07
2.3067119e-05
2.6911099e-07
3.4918237e-07
2.2632208e-05
2.5478166e-07
3.1747785e-07
2.2228528e-05
2.4147379e-07
2.895953e-07
2.1852744e-05
2.2911072e-07
2.6504123e-07
2.1501947e-05
2.1762895e-07
2.4337259e-07
2.1173591e-05
2.069695e-07
2.2420572e-07
2.0865444e-05
1.9707569e-07
2.0720865e-07
2.0575549e-05
1.8789254e-07
1.9209398e-07
2.0302183e-05
1.7936722e-07
1.7861344e-07
2.0043829e-05
1.7144908e-07
1.6655323e-07
1.979915e-05
1.640898e-07
1.5572942e-07
1.956696e-05
1.5724379e-07
1.4598406e-07
1.934621e-05
1.5086891e-07
1.3718219e-07
1.9135969e-05
1.4492648e-07
1.2920881e-07
1.8935407e-05
1.3937904e-07
1.2196306e-07
1.8743783e-05
1.3419231e-07
1.1535763e-07
1.8560435e-05
1.2933509e-07
1.0931726e-07
1.8384766e-05
1.2477909e-07
1.0377717e-07
1.8216241e-05
1.2049854e-07
9.8681277e-08
1.8054377e-05
1.1647017e-07
9.3981331e-08
1.7898734e-05
1.1267292e-07
8.9635409e-08
1.7748917e-05
1.0908823e-07
8.5606991e-08
1.7604563e-05
1.0570002e-07
8.1862396e-08
1.7465345e-05
1.0249336e-07
7.8373265e-08
1.7330962e-05
9.9452996e-08
7.5116998e-08
1.7201138e-05
9.6564426e-08
7.2072732e-08
1.7075619e-05
9.3816656e-08
6.922114e-08
1.695417e-05
9.1201128e-08
6.654513e-08
1.6836577e-05
8.8709127e-08
6.4029565e-08
1.6722638e-05
8.6331949e-08
6.166107e-08
1.661217e-05
8.406175e-08
5.9427722e-08
1.6505001e-05
8.1891536e-08
5.7318803e-08
1.640097e-05
7.9814924e-08
5.5324833e-08
1.6299929e-05
7.7826179e-08
5.3437108e-08
1.620174e-05
7.5919866e-08
5.1647922e-08
1.6106272e-05
7.4091019e-08
4.9950118e-08
1.6013404e-05
7.2334978e-08
4.8337371e-08
1.5923022e-05
7.0647713e-08
4.680385e-08
1.5835019e-05
6.902573e-08
4.5344255e-08
1.5749294e-05
6.746554e-08
4.3953668e-08
1.5665753e-05
6.5963759e-08
4.262769e-08
1.5584307e-05
6.451736e-08
4.1362143e-08
1.5504871e-05
6.3123374e-08
4.0153365e-08
1.5427365e-05
6.1779287e-08
3.8997802e-08
1.5351716e-05
6.0482527e-08
3.7892298e-08
1.5277852e-05
5.9230804e-08
3.6833862e-08
1.5205705e-05
5.8021999e-08
3.5819778e-08
1.5135212e-05
5.6853995e-08
3.484734e-08
1.5066313e-05
5.5724995e-08
3.391433e-08
1.499895e-05
5.4633125e-08
3.3018407e-08
1.493307e-05
5.3576716e-08
3.2157446e-08
1.4868621e-05
5.2554157e-08
3.1329402e-08
1.4805554e-05
5.1563943e-08
3.0532438e-08
1.4743823e-05
5.0604466e-08
2.9764664e-08
1.4683386e-05
4.9674302e-08
2.902438e-08
1.4624199e-05
4.87718e-08
2.830986e-08
1.4566226e-05
4.7895467e-08
2.7619572e-08
1.4509431e-05
4.704349e-08
2.6951995e-08
1.4453778e-05
4.6214099e-08
2.6305778e-08
1.4399237e-05
4.5405416e-08
2.5679892e-08
1.4345777e-05
4.4615716e-08
2.5073747e-08
1.4293367e-05
4.3844285e-08
2.4487703e-08
1.4241972e-05
4.3092877e-08
2.3923733e-08
1.4191548e-05
4.2369927e-08
2.3387121e-08
1.4142019e-05
4.1699322e-08
2.2889655e-08
1.4093249e-05
4.114162e-08
2.2456645e-08
1.4044951e-05
4.0844678e-08
2.2146552e-08
1.3996485e-05
4.1169209e-08
2.212304e-08
1.3946229e-05
4.3012298e-08
2.2985401e-08
1.389015e-05
4.8540262e-08
2.55658e-08
6.3281531e-08
5.0000881e-08
0.00010603565
2.7876425e-06
6.4750379e-06
0.00010074799
4.4145413e-06
6.5685292e-06
9.5493515e-05
4.8594028e-06
6.1741158e-06
9.0256432e-05
4.930369e-06
5.9581921e-06
8.5101366e-05
4.8311767e-06
5.6908012e-06
8.0102875e-05
4.5561761e-06
5.3445981e-06
7.5322251e-05
4.1469521e-06
4.9614853e-06
7.0803266e-05
3.6678925e-06
4.5689837e-06
6.6576264e-05
3.1701903e-06
4.1811255e-06
6.2660725e-05
2.690011e-06
3.8075976e-06
5.9065443e-05
2.2519319e-06
3.4554566e-06
5.5788936e-05
1.8697304e-06
3.1287958e-06
5.2820978e-05
1.5477473e-06
2.8291458e-06
5.014479e-05
1.2836302e-06
2.5563139e-06
4.7739304e-05
1.07123e-06
2.3091141e-06
4.5581183e-05
9.0281506e-07
2.0858661e-06
4.3646423e-05
7.704878e-07
1.884709e-06
4.1911533e-05
6.6697375e-07
1.7037793e-06
4.0354306e-05
5.85982e-07
1.541295e-06
3.8954268e-05
5.2230222e-07
1.3955849e-06
3.769288e-05
4.7175608e-07
1.265091e-06
3.6553576e-05
4.310798e-07
1.1483634e-06
3.552169e-05
3.9778206e-07
1.0440533e-06
3.4584322e-05
3.6999881e-07
9.509083e-07
3.3730181e-05
3.4635983e-07
8.6777015e-07
3.2949411e-05
3.2587759e-07
7.935687e-07
3.2233419e-05
3.0784045e-07
7.2733483e-07
3.1574711e-05
2.9172985e-07
6.6818103e-07
3.0966769e-05
2.7719265e-07
6.1530129e-07
3.0403928e-05
2.6398101e-07
5.6797018e-07
2.9881258e-05
2.5190848e-07
5.2554313e-07
2.9394455e-05
2.4082714e-07
4.8744999e-07
2.8939761e-05
2.3062159e-07
4.5318326e-07
2.8513895e-05
2.2120153e-07
4.2229385e-07
2.8113985e-05
2.1249197e-07
3.9438676e-07
2.7737518e-05
2.0442798e-07
3.6911491e-07
2.7382285e-05
1.9695192e-07
3.4617385e-07
2.7046344e-05
1.9001175e-07
3.2529679e-07
2.6727982e-05
1.8355991e-07
3.0625045e-07
2.6425689e-05
1.7755271e-07
2.8883085e-07
2.6138123e-05
1.7195003e-07
2.7285986e-07
2.5864094e-05
1.6671516e-07
2.5818186e-07
2.5602546e-05
1.6181451e-07
2.4466093e-07
2.535253e-05
1.5721706e-07
2.3217764e-07
2.51132e-05
1.5289441e-07
2.2062726e-07
2.4883797e-05
1.4882096e-07
2.0991772e-07
2.4663634e-05
1.4497364e-07
1.9996812e-07
2.4452094e-05
1.4133184e-07
1.9070708e-07
2.4248615e-05
1.3787699e-07
1.8207154e-07
2.405269e-05
1.3459267e-07
1.7400571e-07
2.3863854e-05
1.314646e-07
1.6645988e-07
2.3681684e-05
1.2848055e-07
1.5938924e-07
2.3505794e-05
1.2562919e-07
1.5275412e-07
2.3335829e-05
1.2289867e-07
1.4651968e-07
2.3171462e-05
1.2027634e-07
1.4065458e-07
2.3012394e-05
1.1775474e-07
1.351302e-07
2.2858345e-05
1.1532968e-07
1.2992043e-07
2.2709057e-05
1.1299538e-07
1.2500174e-07
2.2564291e-05
1.1074516e-07
1.2035288e-07
2.2423824e-05
1.0857346e-07
1.159546e-07
2.2287451e-05
1.0647548e-07
1.1178923e-07
2.2154978e-05
1.0444703e-07
1.0784078e-07
2.2026226e-05
1.0248419e-07
1.0409456e-07
2.1901025e-05
1.0058349e-07
1.0053717e-07
2.1779218e-05
9.8741519e-08
9.7156159e-08
2.1660658e-05
9.695489e-08
9.3940278e-08
2.1545205e-05
9.5221271e-08
9.0879054e-08
2.1432729e-05
9.3538822e-08
8.7962824e-08
2.1323107e-05
9.1905305e-08
8.518262e-08
2.1216222e-05
9.0318507e-08
8.2530177e-08
2.1111965e-05
8.8776376e-08
7.9997876e-08
2.1010233e-05
8.7277098e-08
7.7578643e-08
2.0910927e-05
8.5818967e-08
7.5265875e-08
2.0813956e-05
8.4400327e-08
7.3053417e-08
2.0719232e-05
8.3019681e-08
7.0935658e-08
2.0626671e-05
8.1675619e-08
6.89072e-08
2.0536195e-05
8.03668e-08
6.6963109e-08
2.0447729e-05
7.9091982e-08
6.5098755e-08
2.0361203e-05
7.7849811e-08
6.3309752e-08
2.0276548e-05
7.663922e-08
6.1592039e-08
2.0193702e-05
7.5458975e-08
5.9941736e-08
2.0112602e-05
7.4307953e-08
5.8355243e-08
2.0033193e-05
7.3184907e-08
5.6829058e-08
1.9955419e-05
7.2088594e-08
5.5359964e-08
1.9879228e-05
7.101765e-08
5.3944838e-08
1.9804572e-05
6.9970444e-08
5.2580747e-08
1.9731406e-05
6.8945264e-08
5.1264829e-08
1.9659685e-05
6.7940107e-08
4.9994401e-08
1.9589371e-05
6.6953037e-08
4.8767028e-08
1.9520423e-05
6.5982353e-08
4.758053e-08
1.9452807e-05
6.5028018e-08
4.6433121e-08
1.9386482e-05
6.4094093e-08
4.5323737e-08
1.9321404e-05
6.3194675e-08
4.4253057e-08
1.9257511e-05
6.2366341e-08
4.3225237e-08
1.9194705e-05
6.169517e-08
4.2253177e-08
1.9132798e-05
6.1374053e-08
4.1377411e-08
1.9071394e-05
6.1822415e-08
4.0750691e-08
1.9009424e-05
6.3924732e-08
4.1057613e-08
1.8944661e-05
6.9304686e-08
4.3998795e-08
7.9170953e-08
7.4661515e-08
0.0001054937
1.9169871e-06
6.4880406e-06
0.00010005365
3.2729596e-06
6.5816334e-06
9.4926077e-05
3.8288995e-06
6.1580776e-06
8.9946373e-05
3.9838108e-06
5.9262629e-06
8.5163276e-05
3.9595077e-06
5.6547657e-06
8.0619137e-05
3.7899368e-06
5.3103784e-06
7.6329462e-05
3.5015547e-06
4.9350725e-06
7.230016e-05
3.1412013e-06
4.5559928e-06
6.8534206e-05
2.7514802e-06
4.1846641e-06
6.5032983e-05
2.3633493e-06
3.8278852e-06
6.1795789e-05
1.9984143e-06
3.490711e-06
5.8818843e-05
1.6703759e-06
3.176301e-06
5.6094718e-05
1.3858295e-06
2.8860429e-06
5.3612488e-05
1.1457944e-06
2.6200649e-06
5.1358373e-05
9.4764114e-07
2.3777043e-06
4.9316593e-05
7.8676783e-07
2.1578272e-06
4.7470246e-05
6.5779546e-07
1.9590391e-06
4.5802069e-05
5.553254e-07
1.7798252e-06
4.4295042e-05
4.7437112e-07
1.6186378e-06
4.293283e-05
4.1056666e-07
1.473948e-06
4.1700078e-05
3.6023237e-07
1.3442759e-06
4.0582591e-05
3.2035745e-07
1.2282094e-06
3.956742e-05
2.8853737e-07
1.1244154e-06
3.8642881e-05
2.6289066e-07
1.0316467e-06
3.7798527e-05
2.4196986e-07
9.48744e-07
3.7025076e-05
2.2467703e-07
8.7465171e-07
3.6314324e-05
2.10189e-07
8.084041e-07
3.5659057e-05
1.9788603e-07
7.4911044e-07
3.5052961e-05
1.873158e-07
6.9597284e-07
3.4490519e-05
1.7814872e-07
6.4827382e-07
3.3966922e-05
1.7013171e-07
6.0537439e-07
3.3477973e-05
1.630673e-07
5.6670865e-07
3.3020016e-05
1.5680298e-07
5.3177543e-07
3.2589865e-05
1.5122056e-07
5.0013241e-07
3.218474e-05
1.4622565e-07
4.7139136e-07
3.1802215e-05
1.4174076e-07
4.4521234e-07
3.1440168e-05
1.3770093e-07
4.2129808e-07
3.1096739e-05
1.3405095e-07
3.9938924e-07
3.0770297e-05
1.307429e-07
3.7925956e-07
3.0459402e-05
1.2773514e-07
3.6071196e-07
3.0162787e-05
1.2499094e-07
3.4357479e-07
2.9879325e-05
1.2247785e-07
3.276985e-07
2.960802e-05
1.2016732e-07
3.1295273e-07
2.934798e-05
1.1803378e-07
2.9922353e-07
2.9098408e-05
1.1605462e-07
2.8641138e-07
2.885859e-05
1.1420978e-07
2.7442904e-07
2.8627882e-05
1.124819e-07
2.6320001e-07
2.8405701e-05
1.108556e-07
2.5265686e-07
2.819152e-05
1.0931756e-07
2.4274024e-07
2.7984859e-05
1.0785646e-07
2.3339756e-07
2.7785279e-05
1.064628e-07
2.2458213e-07
2.7592378e-05
1.0512872e-07
2.1625216e-07
2.740579e-05
1.0384735e-07
2.0837038e-07
2.7225174e-05
1.0261118e-07
2.009036e-07
2.705022e-05
1.0140744e-07
1.9382256e-07
2.6880641e-05
1.002338e-07
1.8710042e-07
2.6716166e-05
9.9092336e-08
1.8071225e-07
2.6556546e-05
9.7979972e-08
1.7463557e-07
2.6401548e-05
9.6892517e-08
1.6885015e-07
2.6250957e-05
9.5827104e-08
1.6333743e-07
2.610457e-05
9.4781698e-08
1.5808045e-07
2.5962199e-05
9.3754733e-08
1.5306361e-07
2.5823666e-05
9.2744859e-08
1.4827261e-07
2.5688804e-05
9.1750991e-08
1.4369414e-07
2.5557458e-05
9.0771739e-08
1.3931599e-07
2.5429481e-05
8.9805152e-08
1.3512693e-07
2.5304734e-05
8.8851448e-08
1.3111647e-07
2.5183087e-05
8.7911168e-08
1.2727467e-07
2.5064416e-05
8.6983887e-08
1.2359243e-07
2.4948604e-05
8.606886e-08
1.200612e-07
2.4835542e-05
8.5165769e-08
1.16673e-07
2.4725124e-05
8.4274292e-08
1.1342045e-07
2.4617252e-05
8.339425e-08
1.1029657e-07
2.4511832e-05
8.2525456e-08
1.0729479e-07
2.4408775e-05
8.1667743e-08
1.0440897e-07
2.4307997e-05
8.0820969e-08
1.0163344e-07
2.4209416e-05
7.9985018e-08
9.8962652e-08
2.4112956e-05
7.9159743e-08
9.6391535e-08
2.4018546e-05
7.8345038e-08
9.3915281e-08
2.3926115e-05
7.7540675e-08
9.1529296e-08
2.3835598e-05
7.6746553e-08
8.9229257e-08
2.3746933e-05
7.5962319e-08
8.7011039e-08
2.366006e-05
7.5187652e-08
8.4870714e-08
2.3574922e-05
7.4421968e-08
8.2804535e-08
2.3491466e-05
7.3664651e-08
8.0808911e-08
2.3409641e-05
7.2914625e-08
7.8880358e-08
2.33294e-05
7.2170703e-08
7.7015512e-08
2.3250698e-05
7.1431343e-08
7.5211023e-08
2.3173493e-05
7.0694866e-08
7.3463612e-08
2.3097745e-05
6.9960203e-08
7.1770065e-08
2.3023418e-05
6.9227925e-08
7.0127019e-08
2.2950477e-05
6.850349e-08
6.8531203e-08
2.2878889e-05
6.780283e-08
6.6979696e-08
2.2808619e-05
6.716503e-08
6.5471599e-08
2.2739625e-05
6.6675245e-08
6.4013355e-08
2.267185e-05
6.6507067e-08
6.2642311e-08
2.2605149e-05
6.6990738e-08
6.1532378e-08
2.2538888e-05
6.8686076e-08
6.149989e-08
2.2471121e-05
7.2226989e-08
6.4845109e-08
7.6722829e-08
9.8461316e-08
0.0001051979
1.3340884e-06
6.4961221e-06
9.9496561e-05
2.3731022e-06
6.6011947e-06
9.4262459e-05
2.9019223e-06
6.1610799e-06
8.9251186e-05
3.0856641e-06
5.9094196e-06
8.4493497e-05
3.0947346e-06
5.6224614e-06
8.0033635e-05
2.9846656e-06
5.265134e-06
7.5876907e-05
2.7790155e-06
4.8792667e-06
7.2014635e-05
2.5106843e-06
4.4927895e-06
6.8436293e-05
2.2128728e-06
4.1169489e-06
6.5131387e-05
1.9107259e-06
3.7575292e-06
6.208941e-05
1.621732e-06
3.4186596e-06
5.9299432e-05
1.3573878e-06
3.1029661e-06
5.6749589e-05
1.1240344e-06
2.8116387e-06
5.4426788e-05
9.2377948e-07
2.5448158e-06
5.2316754e-05
7.5572795e-07
2.3019466e-06
5.0404313e-05
6.1717853e-07
2.0820302e-06
4.8673788e-05
5.0454347e-07
1.8837772e-06
4.7109414e-05
4.1397178e-07
1.7057274e-06
4.5695713e-05
3.4173646e-07
1.5463363e-06
4.4417792e-05
2.8445148e-07
1.4040359e-06
4.3261575e-05
2.3917114e-07
1.277278e-06
4.2213952e-05
2.0341504e-07
1.1645652e-06
4.1262871e-05
1.7514744e-07
1.0644719e-06
4.039737e-05
1.5273237e-07
9.7565902e-07
3.9607583e-05
1.348753e-07
8.9688143e-07
3.8884688e-05
1.2055569e-07
8.270164e-07
3.8220848e-05
1.0901091e-07
7.6501856e-07
3.7609155e-05
9.963382e-08
7.0994489e-07
3.7043542e-05
9.1977432e-08
6.6095087e-07
3.6518702e-05
8.5705795e-08
6.1728286e-07
3.6030009e-05
8.0552373e-08
5.782731e-07
3.5573433e-05
7.6308276e-08
5.4333411e-07
3.5145475e-05
7.2811282e-08
5.119503e-07
3.4743091e-05
6.9934143e-08
4.8367025e-07
3.4363641e-05
6.7575469e-08
4.5810068e-07
3.4004828e-05
6.5652895e-08
4.3489999e-07
3.3664659e-05
6.4098615e-08
4.1377211e-07
3.3341393e-05
6.2855913e-08
3.9446094e-07
3.3033513e-05
6.1877017e-08
3.767453e-07
3.2739693e-05
6.1121084e-08
3.6043425e-07
3.2458768e-05
6.0553055e-08
3.4536327e-07
3.2189712e-05
6.0142636e-08
3.3139056e-07
3.1931622e-05
5.9863617e-08
3.1839377e-07
3.1683696e-05
5.9693124e-08
3.0626734e-07
3.1445219e-05
5.9611196e-08
2.9492011e-07
3.1215555e-05
5.9600616e-08
2.8427317e-07
3.0994132e-05
5.9646523e-08
2.7425807e-07
3.0780436e-05
5.9736162e-08
2.6481539e-07
3.0574002e-05
5.9858658e-08
2.5589333e-07
3.0374407e-05
6.0004926e-08
2.4744661e-07
3.0181267e-05
6.0167622e-08
2.394355e-07
2.9994229e-05
6.0341232e-08
2.3182487e-07
2.9812971e-05
6.0521778e-08
2.2458375e-07
2.9637193e-05
6.0704468e-08
2.1768455e-07
2.9466629e-05
6.0867281e-08
2.1110459e-07
2.9301024e-05
6.1016995e-08
2.0482181e-07
2.914014e-05
6.1160861e-08
1.988157e-07
2.8983756e-05
6.1294951e-08
1.9306838e-07
2.8831669e-05
6.1415454e-08
1.8756391e-07
2.8683688e-05
6.1520935e-08
1.8228764e-07
2.8539633e-05
6.1610541e-08
1.7722637e-07
2.8399336e-05
6.1683773e-08
1.7236781e-07
2.8262639e-05
6.174049e-08
1.677009e-07
2.8129394e-05
6.1780684e-08
1.6321519e-07
2.7999461e-05
6.1803854e-08
1.5890123e-07
2.7872709e-05
6.1807366e-08
1.5475039e-07
2.7749012e-05
6.1793579e-08
1.5075445e-07
2.7628253e-05
6.1764827e-08
1.4690557e-07
2.7510319e-05
6.1720974e-08
1.4319662e-07
2.7395105e-05
6.1662077e-08
1.3962081e-07
2.728251e-05
6.15886e-08
1.3617201e-07
2.7172439e-05
6.1501044e-08
1.3284424e-07
2.7064802e-05
6.1399967e-08
1.2963192e-07
2.6959511e-05
6.128591e-08
1.2652988e-07
2.6856486e-05
6.1159527e-08
1.2353325e-07
2.6755649e-05
6.1021289e-08
1.2063732e-07
2.6656924e-05
6.0871868e-08
1.1783765e-07
2.6560242e-05
6.0711716e-08
1.1513014e-07
2.6465535e-05
6.0541401e-08
1.1251078e-07
2.6372738e-05
6.0361301e-08
1.099758e-07
2.6281791e-05
6.0171914e-08
1.0752157e-07
2.6192636e-05
5.9973524e-08
1.0514473e-07
2.6105215e-05
5.9766301e-08
1.0284185e-07
2.6019477e-05
5.9550249e-08
1.0060974e-07
2.5935371e-05
5.9325159e-08
9.8445292e-08
2.585285e-05
5.9090504e-08
9.6345394e-08
2.5771868e-05
5.8845494e-08
9.4306938e-08
2.5692384e-05
5.8589018e-08
9.2326739e-08
2.5614357e-05
5.8319806e-08
9.0401427e-08
2.5537753e-05
5.8037079e-08
8.8527315e-08
2.5462539e-05
5.7741604e-08
8.6700208e-08
2.5388689e-05
5.743839e-08
8.4915169e-08
2.5316184e-05
5.7141418e-08
8.316664e-08
2.5245017e-05
5.6882547e-08
8.1449651e-08
2.51752e-05
5.6726025e-08
7.9765823e-08
2.510677e-05
5.6787919e-08
7.8149189e-08
2.5039729e-05
5.7251605e-08
7.6780965e-08
2.4973573e-05
5.8330945e-08
7.6510232e-08
2.4906079e-05
5.9989504e-08
7.9732174e-08
6.0714995e-08
1.1287825e-07
0.00010503672
9.0789372e-07
6.5005614e-06
9.9140653e-05
1.6524914e-06
6.6166802e-06
9.3788329e-05
2.0825241e-06
6.1717217e-06
8.8708526e-05
2.2549373e-06
5.91053e-06
8.3909682e-05
2.278404e-06
5.6151748e-06
7.9437109e-05
2.207482e-06
5.2497564e-06
7.5296201e-05
2.0645348e-06
4.8553893e-06
7.1474034e-05
1.8722543e-06
4.4605969e-06
6.7955013e-05
1.6547667e-06
4.0771269e-06
6.4723621e-05
1.4313505e-06
3.7107669e-06
6.1764423e-05
1.2154297e-06
3.3655007e-06
5.9062056e-05
1.015864e-06
3.0438911e-06
5.6601108e-05
8.3782743e-07
2.7471548e-06
5.4365944e-05
6.8344647e-07
2.475497e-06
5.2340648e-05
5.5258527e-07
2.2284383e-06
5.0509125e-05
4.4366545e-07
2.005036e-06
4.8855299e-05
3.5433454e-07
1.8040352e-06
4.7363353e-05
2.8193588e-07
1.6239822e-06
4.6017963e-05
2.2381347e-07
1.4633127e-06
4.4804503e-05
1.7749381e-07
1.3204181e-06
4.3709199e-05
1.4078087e-07
1.1936935e-06
4.2719248e-05
1.1179157e-07
1.081575e-06
4.1822875e-05
8.8954542e-08
9.8256581e-07
4.1009364e-05
7.0987985e-08
8.9525472e-07
4.0269054e-05
5.6861826e-08
8.1832381e-07
3.9593306e-05
4.5719126e-08
7.5058474e-07
3.8974405e-05
3.6977865e-08
6.9093438e-07
3.8405585e-05
3.006735e-08
6.383863e-07
3.7880869e-05
2.4650828e-08
5.9204239e-07
3.7395029e-05
2.0439987e-08
5.5110607e-07
3.6943514e-05
1.7190262e-08
5.1487714e-07
3.6522366e-05
1.4716718e-08
4.8273957e-07
3.6128148e-05
1.2874792e-08
4.541539e-07
3.5757883e-05
1.1549923e-08
4.2864944e-07
3.5408991e-05
1.065079e-08
4.0581705e-07
3.5079238e-05
1.0103628e-08
3.8530227e-07
3.4766689e-05
9.8482536e-09
3.6679876e-07
3.4469668e-05
9.8350965e-09
3.5004232e-07
3.4186716e-05
1.0022907e-08
3.3480552e-07
3.3916567e-05
1.0377027e-08
3.2089286e-07
3.3658116e-05
1.0868039e-08
3.0813659e-07
3.3410395e-05
1.1470964e-08
2.9639284e-07
3.3172556e-05
1.2164208e-08
2.8553825e-07
3.2943853e-05
1.2929303e-08
2.7546714e-07
3.2723625e-05
1.3750153e-08
2.6608892e-07
3.2511286e-05
1.461307e-08
2.5732573e-07
3.2306316e-05
1.5506236e-08
2.4911066e-07
3.2108246e-05
1.6419592e-08
2.4138623e-07
3.1916658e-05
1.7344621e-08
2.3410269e-07
3.1731171e-05
1.8274311e-08
2.2721712e-07
3.1551444e-05
1.9203174e-08
2.2069216e-07
3.1377162e-05
2.0127697e-08
2.144951e-07
3.1208038e-05
2.1048614e-08
2.0859682e-07
3.10438e-05
2.1972751e-08
2.0297056e-07
3.0884232e-05
2.2827804e-08
1.9760736e-07
3.0729103e-05
2.3662947e-08
1.9248228e-07
3.05782e-05
2.4489984e-08
1.8757383e-07
3.0431331e-05
2.529627e-08
1.8286765e-07
3.0288318e-05
2.6077978e-08
1.7835077e-07
3.0148994e-05
2.6834314e-08
1.7401108e-07
3.0013202e-05
2.7564696e-08
1.6983756e-07
2.9880797e-05
2.8268975e-08
1.6582023e-07
2.975164e-05
2.8947448e-08
1.6195015e-07
2.96256e-05
2.960075e-08
1.5821894e-07
2.9502557e-05
3.0228521e-08
1.5461918e-07
2.9382396e-05
3.0823588e-08
1.5114465e-07
2.9265007e-05
3.139311e-08
1.4778878e-07
2.9150287e-05
3.1939584e-08
1.4454538e-07
2.9038137e-05
3.2461862e-08
1.4140899e-07
2.8928465e-05
3.2960063e-08
1.383746e-07
2.8821181e-05
3.3434709e-08
1.3543752e-07
2.8716203e-05
3.3886351e-08
1.325933e-07
2.8613449e-05
3.4315514e-08
1.2983789e-07
2.8512845e-05
3.4722868e-08
1.2716737e-07
2.8414317e-05
3.5108957e-08
1.2457815e-07
2.8317797e-05
3.5474447e-08
1.2206682e-07
2.8223219e-05
3.5819892e-08
1.1963008e-07
2.813052e-05
3.614593e-08
1.1726491e-07
2.803964e-05
3.6453059e-08
1.1496839e-07
2.7950522e-05
3.6741865e-08
1.1273773e-07
2.7863111e-05
3.7012789e-08
1.1057027e-07
2.7777355e-05
3.7266249e-08
1.0846345e-07
2.7693204e-05
3.750247e-08
1.0641476e-07
2.7610611e-05
3.7721613e-08
1.0442175e-07
2.752953e-05
3.7923544e-08
1.02482e-07
2.744992e-05
3.8108023e-08
1.0059304e-07
2.7371738e-05
3.82743e-08
9.8752302e-08
2.7294949e-05
3.8421543e-08
9.6956912e-08
2.7219516e-05
3.8548732e-08
9.5203642e-08
2.714541e-05
3.8655122e-08
9.3488617e-08
2.7072603e-05
3.8741156e-08
9.180698e-08
2.7001079e-05
3.8810278e-08
9.015234e-08
2.6930832e-05
3.8872116e-08
8.8516578e-08
2.6861877e-05
3.8947382e-08
8.6890563e-08
2.679426e-05
3.9073541e-08
8.5269168e-08
2.6728065e-05
3.9306956e-08
8.3675939e-08
2.6663337e-05
3.9708348e-08
8.2271188e-08
2.659956e-05
4.0271985e-08
8.1836183e-08
2.6534295e-05
4.0698013e-08
8.4555713e-08
3.962086e-08
1.1507133e-07
0.00010494757
5.6811081e-07
6.5033076e-06
9.8925416e-05
1.0462983e-06
6.6283517e-06
9.3480449e-05
1.3439844e-06
6.1835065e-06
8.8341777e-05
1.4751324e-06
5.9184763e-06
8.3502084e-05
1.4993911e-06
5.6187065e-06
7.9004057e-05
1.4572411e-06
5.2482679e-06
7.4853978e-05
1.3667382e-06
4.8478757e-06
7.1037378e-05
1.2423973e-06
4.4464569e-06
6.7536062e-05
1.0997693e-06
4.0563127e-06
6.4331998e-05
9.5192359e-07
3.683491e-06
6.1407318e-05
8.0805755e-07
3.3320524e-06
5.8744339e-05
6.7422202e-07
3.0046209e-06
5.6325632e-05
5.5404394e-07
2.7024907e-06
5.4133973e-05
4.4916746e-07
2.4259383e-06
5.2152298e-05
3.5972401e-07
2.174536e-06
5.0363747e-05
2.8484512e-07
1.9473718e-06
4.875178e-05
2.2310003e-07
1.7432015e-06
4.7300339e-05
1.7281169e-07
1.5605647e-06
4.5994012e-05
1.3226573e-07
1.3978748e-06
4.4818177e-05
9.984001e-08
1.2534891e-06
4.3759121e-05
7.4075608e-08
1.1257614e-06
4.2804123e-05
5.3707638e-08
1.0130814e-06
4.1941503e-05
3.7671227e-08
9.1390374e-07
4.1160627e-05
2.5096464e-08
8.2676732e-07
4.0451891e-05
1.5294176e-08
7.5030388e-07
3.980679e-05
7.5281865e-09
6.8329176e-07
3.9217543e-05
1.6727571e-09
6.2455203e-07
3.8677513e-05
-3.0331147e-09
5.731308e-07
3.8180739e-05
-6.6487023e-09
5.2807352e-07
3.7722004e-05
-9.3595532e-09
4.885345e-07
3.7296777e-05
-1.1371817e-08
4.5378927e-07
3.6901112e-05
-1.2818246e-08
4.2319911e-07
3.6531588e-05
-1.3805314e-08
3.9620479e-07
3.6185236e-05
-1.4417495e-08
3.7231874e-07
3.5859491e-05
-1.4721891e-08
3.5111774e-07
3.5552132e-05
-1.4772644e-08
3.3223576e-07
3.5261237e-05
-1.4613927e-08
3.1535725e-07
3.4985143e-05
-1.4282177e-08
3.0021088e-07
3.472241e-05
-1.3807713e-08
2.8656374e-07
3.4471787e-05
-1.3215888e-08
2.742163e-07
3.4232185e-05
-1.2528185e-08
2.6299769e-07
3.4002657e-05
-1.1762805e-08
2.5276173e-07
3.3782373e-05
-1.0935228e-08
2.4338338e-07
3.3570606e-05
-1.0058762e-08
2.3475555e-07
3.3366714e-05
-9.144721e-09
2.2678672e-07
3.3170132e-05
-8.2028005e-09
2.1939834e-07
3.2980356e-05
-7.2412373e-09
2.1252297e-07
3.279694e-05
-6.2668705e-09
2.0610282e-07
3.2619482e-05
-5.2855513e-09
2.0008784e-07
3.2447623e-05
-4.3018283e-09
1.9443477e-07
3.228104e-05
-3.3190486e-09
1.8910586e-07
3.2119438e-05
-2.3383346e-09
1.8406735e-07
3.1962554e-05
-1.3530509e-09
1.7928646e-07
3.1810075e-05
-2.7632409e-10
1.7472765e-07
3.1661878e-05
5.8581299e-10
1.7043903e-07
3.1517732e-05
1.4356025e-09
1.6637294e-07
3.1377429e-05
2.3038154e-09
1.6248957e-07
3.1240792e-05
3.1586125e-09
1.5877488e-07
3.1107656e-05
3.9969654e-09
1.552172e-07
3.0977867e-05
4.8171285e-09
1.5180547e-07
3.0851284e-05
5.6179737e-09
1.4852967e-07
3.0727774e-05
6.3990348e-09
1.4538076e-07
3.0607209e-05
7.1609258e-09
1.4235054e-07
3.0489473e-05
7.9059141e-09
1.3943122e-07
3.037445e-05
8.635727e-09
1.3661577e-07
3.0262049e-05
9.3206317e-09
1.3390396e-07
3.0152163e-05
9.993802e-09
1.3128567e-07
3.0044697e-05
1.0650387e-08
1.2875514e-07
2.9939564e-05
1.1286734e-08
1.263083e-07
2.983668e-05
1.1903201e-08
1.239409e-07
2.9735965e-05
1.2500147e-08
1.2164886e-07
2.9637345e-05
1.3077891e-08
1.1942843e-07
2.9540748e-05
1.3636714e-08
1.1727619e-07
2.9446105e-05
1.4176968e-08
1.1518883e-07
2.9353352e-05
1.4699138e-08
1.1316337e-07
2.9262425e-05
1.5203503e-08
1.11197e-07
2.9173268e-05
1.5690459e-08
1.0928705e-07
2.9085822e-05
1.6160378e-08
1.0743107e-07
2.9000035e-05
1.6613559e-08
1.0562665e-07
2.8915855e-05
1.7050386e-08
1.0387154e-07
2.8833233e-05
1.7471074e-08
1.0216363e-07
2.8752123e-05
1.7875974e-08
1.0050083e-07
2.8672479e-05
1.8265093e-08
9.8881099e-08
2.8594259e-05
1.8638561e-08
9.7302481e-08
2.8517424e-05
1.8996232e-08
9.5762917e-08
2.8441934e-05
1.9337799e-08
9.426032e-08
2.8367753e-05
1.9662823e-08
9.2792352e-08
2.8294848e-05
1.9970491e-08
9.1356266e-08
2.8223187e-05
2.0260032e-08
8.9948882e-08
2.8152746e-05
2.0530696e-08
8.8565909e-08
2.8083503e-05
2.0782594e-08
8.7201803e-08
2.8015447e-05
2.1017565e-08
8.5848698e-08
2.7948582e-05
2.1240763e-08
8.4495884e-08
2.7882937e-05
2.1462753e-08
8.3129511e-08
2.7818574e-05
2.1699991e-08
8.173652e-08
2.7755588e-05
2.1969278e-08
8.0324365e-08
2.7694014e-05
2.2266179e-08
7.901608e-08
2.7633299e-05
2.2506296e-08
7.848062e-08
2.7571004e-05
2.2393428e-08
8.0599491e-08
2.099309e-08
1.0779947e-07
0.00010489986
2.7443378e-07
6.5049155e-06
9.8802772e-05
5.0716634e-07
6.6362236e-06
9.329591e-05
6.5854974e-07
6.1922972e-06
8.8116302e-05
7.2902545e-07
5.9257148e-06
8.3248198e-05
7.4378815e-07
5.6237064e-06