/*--------------------------------*- C++ -*----------------------------------*\
  =========                 |
  \\      /  F ield         | OpenFOAM: The Open Source CFD Toolbox
   \\    /   O peration     | Website:  https://openfoam.org
    \\  /    A nd           | Version:  7
     \\/     M anipulation  |
\*---------------------------------------------------------------------------*/
FoamFile
{
    version     2.0;
    format      ascii;
    class       volVectorField;
    location    "400/water";
    object      U;
}
// * * * * * * * * * * * * * * * * * * * * * * * * * * * * * * * * * * * * * //

dimensions      [0 1 -1 0 0 0 0];

internalField   nonuniform List<vector> 
54000
(
(0.0090020934 0.00020305973 0.00020444027)
(0.0083186447 0.00023622738 0.00023904411)
(0.0073695241 0.00021363852 0.00021763527)
(0.0063566114 0.00018488016 0.00018965819)
(0.0054486673 0.00015530836 0.00016048633)
(0.0046741594 0.00012529952 0.00013052937)
(0.0040193038 9.7052611e-05 0.00010203017)
(0.0034740067 7.2578999e-05 7.7073287e-05)
(0.0030302461 5.2876126e-05 5.6738329e-05)
(0.0026757323 3.806815e-05 4.1216513e-05)
(0.0023947254 2.7637704e-05 3.003714e-05)
(0.0021713898 2.0689034e-05 2.2336509e-05)
(0.0019919695 1.6236161e-05 1.7152703e-05)
(0.0018455015 1.3416236e-05 1.3643172e-05)
(0.0017237326 1.158249e-05 1.1179122e-05)
(0.0016206928 1.0304892e-05 9.3455816e-06)
(0.0015321593 9.325791e-06 7.8957156e-06)
(0.0014551546 8.5052965e-06 6.6953097e-06)
(0.0013875459 7.7746329e-06 5.6760575e-06)
(0.0013277612 7.1034272e-06 4.8034859e-06)
(0.001274601 6.4798496e-06 4.0581561e-06)
(0.0012271179 5.8999459e-06 3.4261576e-06)
(0.0011845424 5.3625303e-06 2.8950717e-06)
(0.001146235 4.8670222e-06 2.4526303e-06)
(0.0011116558 4.4126007e-06 2.0869764e-06)
(0.0010803434 3.9980131e-06 1.7867454e-06)
(0.0010519002 3.6214607e-06 1.5416134e-06)
(0.0010259819 3.2805942e-06 1.3421854e-06)
(0.001002289 2.9733956e-06 1.1797309e-06)
(0.00098056199 2.6979487e-06 1.0463194e-06)
(0.00096057571 2.4519201e-06 9.3658892e-07)
(0.00094213242 2.232566e-06 8.4693408e-07)
(0.00092505792 2.0373862e-06 7.7316546e-07)
(0.00090920047 1.8640897e-06 7.1184199e-07)
(0.00089442818 1.7104623e-06 6.6046779e-07)
(0.0008806259 1.5743828e-06 6.1707328e-07)
(0.00086769295 1.4538615e-06 5.8005259e-07)
(0.00085554128 1.347071e-06 5.4811493e-07)
(0.00084409387 1.2523502e-06 5.2023857e-07)
(0.00083328322 1.1681986e-06 4.956265e-07)
(0.00082305015 1.0932615e-06 4.7365314e-07)
(0.00081334267 1.0262293e-06 4.5378214e-07)
(0.00080411486 9.6585935e-07 4.3554464e-07)
(0.00079532615 9.1131013e-07 4.1864987e-07)
(0.0007869407 8.6191653e-07 4.02907e-07)
(0.00077892675 8.1708194e-07 3.8816833e-07)
(0.00077125603 7.7627606e-07 3.7432066e-07)
(0.0007639033 7.3902648e-07 3.6127639e-07)
(0.00075684598 7.0491424e-07 3.4896501e-07)
(0.00075006373 6.7357556e-07 3.3733234e-07)
(0.00074353822 6.4469453e-07 3.2633647e-07)
(0.00073725294 6.1802565e-07 3.1581781e-07)
(0.00073119314 5.9334779e-07 3.0574443e-07)
(0.00072534528 5.7041858e-07 2.9621126e-07)
(0.00071969687 5.4902447e-07 2.8716631e-07)
(0.00071423653 5.2901457e-07 2.785433e-07)
(0.00070895385 5.1027385e-07 2.703112e-07)
(0.00070383928 4.9268802e-07 2.6244806e-07)
(0.00069888397 4.7614507e-07 2.5493267e-07)
(0.00069407976 4.6054982e-07 2.4774419e-07)
(0.00068941911 4.4582086e-07 2.4086408e-07)
(0.00068489502 4.3188487e-07 2.342768e-07)
(0.00068050098 4.1867939e-07 2.2796376e-07)
(0.00067623091 4.0614657e-07 2.2191181e-07)
(0.00067207915 3.9423499e-07 2.1610511e-07)
(0.00066804042 3.828981e-07 2.1053114e-07)
(0.00066410976 3.7209472e-07 2.0517777e-07)
(0.00066028251 3.6179366e-07 2.000336e-07)
(0.00065655429 3.5196228e-07 1.9508255e-07)
(0.00065292099 3.4256925e-07 1.9031849e-07)
(0.00064937872 3.3358686e-07 1.8572808e-07)
(0.00064592384 3.2498806e-07 1.8130598e-07)
(0.00064255288 3.1675093e-07 1.7704015e-07)
(0.00063926261 3.0885624e-07 1.7292489e-07)
(0.00063604992 3.0128224e-07 1.689504e-07)
(0.00063291192 2.9401265e-07 1.6511101e-07)
(0.00062984582 2.8703074e-07 1.6139764e-07)
(0.00062684903 2.8032118e-07 1.578039e-07)
(0.00062391907 2.7387101e-07 1.5432117e-07)
(0.00062105358 2.6766507e-07 1.50942e-07)
(0.00061825035 2.6169469e-07 1.4766056e-07)
(0.00061550727 2.5594474e-07 1.4446908e-07)
(0.00061282235 2.5040734e-07 1.4135939e-07)
(0.00061019373 2.4506864e-07 1.3832442e-07)
(0.00060761965 2.3991941e-07 1.3535578e-07)
(0.00060509846 2.3494635e-07 1.3244844e-07)
(0.00060262863 2.3013482e-07 1.29598e-07)
(0.00060020873 2.2546931e-07 1.2680388e-07)
(0.00059783744 2.2093138e-07 1.240755e-07)
(0.00059551348 2.1649898e-07 1.2143368e-07)
(0.00059323555 2.1214991e-07 1.1892914e-07)
(0.00059100214 2.0787264e-07 1.1666205e-07)
(0.00058881114 2.0369092e-07 1.1482956e-07)
(0.00058665898 1.9973161e-07 1.1381997e-07)
(0.0005845387 1.9638491e-07 1.1441089e-07)
(0.00058243502 1.9487268e-07 1.1837387e-07)
(0.00058031396 1.9977503e-07 1.3094387e-07)
(0.0005781161 2.2258537e-07 1.6397635e-07)
(0.00057566369 1.9706996e-07 1.5080578e-07)
(0.00056906201 7.8896354e-07 7.5322554e-07)
(0.0095316863 0.0003313754 0.00022336697)
(0.0092716504 0.00041105942 0.00027052342)
(0.0087756651 0.00040317187 0.00026060062)
(0.0081527518 0.00038218754 0.00024252081)
(0.0075302151 0.00035309574 0.00022101124)
(0.0069425889 0.00031541062 0.00019648834)
(0.006391209 0.00027309198 0.00017102969)
(0.0058791845 0.00023030694 0.00014652546)
(0.0054120202 0.00019001855 0.00012410997)
(0.0049926512 0.00015423459 0.00010436627)
(0.004620592 0.00012408347 8.7479018e-05)
(0.0042931332 9.9809403e-05 7.3327496e-05)
(0.0040063965 8.0956424e-05 6.1601504e-05)
(0.0037559538 6.667221e-05 5.1918794e-05)
(0.0035372541 5.5985801e-05 4.3907445e-05)
(0.003345947 4.7992056e-05 3.7246645e-05)
(0.0031780884 4.1941711e-05 3.167753e-05)
(0.0030302311 3.7262445e-05 2.699792e-05)
(0.0028994324 3.3540995e-05 2.3051138e-05)
(0.0027832152 3.0490243e-05 1.9714593e-05)
(0.0026795075 2.7915735e-05 1.6890544e-05)
(0.0025865783 2.5687841e-05 1.4499383e-05)
(0.002502978 2.3720892e-05 1.2475015e-05)
(0.0024274871 2.1958432e-05 1.0761725e-05)
(0.0023590736 2.0362995e-05 9.3122317e-06)
(0.0022968589 1.8909453e-05 8.0861284e-06)
(0.0022400906 1.7580769e-05 7.0489626e-06)
(0.0021881216 1.6364898e-05 6.171497e-06)
(0.0021403932 1.5251963e-05 5.4283133e-06)
(0.0020964214 1.4233848e-05 4.7973496e-06)
(0.0020557868 1.3303039e-05 4.2604816e-06)
(0.0020181236 1.2451984e-05 3.8027031e-06)
(0.0019831119 1.1673907e-05 3.4109602e-06)
(0.0019504718 1.0962756e-05 3.074421e-06)
(0.0019199589 1.0312853e-05 2.7842601e-06)
(0.0018913593 9.7188341e-06 2.5331796e-06)
(0.0018644851 9.1756451e-06 2.3150738e-06)
(0.0018391716 8.678572e-06 2.1248314e-06)
(0.0018152735 8.2232427e-06 1.9581838e-06)
(0.001792663 7.80562e-06 1.8115677e-06)
(0.0017712268 7.4219967e-06 1.6820122e-06)
(0.001750865 7.0689361e-06 1.5670706e-06)
(0.0017314886 6.7432679e-06 1.4647426e-06)
(0.0017130186 6.4422715e-06 1.3732751e-06)
(0.0016953848 6.1635566e-06 1.2911592e-06)
(0.0016785241 5.9049769e-06 1.2171192e-06)
(0.00166238 5.6646095e-06 1.1500844e-06)
(0.0016469019 5.4407263e-06 1.0891486e-06)
(0.001632044 5.2317782e-06 1.0335536e-06)
(0.0016177649 5.0363848e-06 9.8265374e-07)
(0.0016040271 4.8533234e-06 9.3589373e-07)
(0.0015907965 4.681562e-06 8.927367e-07)
(0.0015780424 4.5201564e-06 8.5278633e-07)
(0.0015657364 4.3681532e-06 8.1577049e-07)
(0.0015538526 4.2246829e-06 7.8138527e-07)
(0.0015423672 4.0890604e-06 7.4934496e-07)
(0.0015312583 3.9607296e-06 7.1941331e-07)
(0.0015205058 3.8391533e-06 6.9138811e-07)
(0.0015100909 3.7238125e-06 6.6509482e-07)
(0.0014999963 3.6142428e-06 6.4038048e-07)
(0.0014902061 3.51003e-06 6.1710805e-07)
(0.0014807053 3.4107986e-06 5.9516019e-07)
(0.00147148 3.3162126e-06 5.7442702e-07)
(0.0014625175 3.2259595e-06 5.5481529e-07)
(0.0014538055 3.1397548e-06 5.3623559e-07)
(0.0014453328 3.0573357e-06 5.1861297e-07)
(0.0014370889 2.9784702e-06 5.0187802e-07)
(0.0014290637 2.902958e-06 4.8596773e-07)
(0.001421248 2.8306028e-06 4.7082256e-07)
(0.001413633 2.7612178e-06 4.5639257e-07)
(0.0014062104 2.694634e-06 4.4262758e-07)
(0.0013989723 2.6306897e-06 4.2948773e-07)
(0.0013919116 2.5692442e-06 4.1693043e-07)
(0.0013850211 2.5101624e-06 4.0492106e-07)
(0.0013782945 2.4533171e-06 3.9342515e-07)
(0.0013717253 2.3985947e-06 3.8241292e-07)
(0.0013653078 2.3458838e-06 3.7185076e-07)
(0.0013590364 2.2950858e-06 3.6171717e-07)
(0.0013529058 2.2461046e-06 3.5198374e-07)
(0.001346911 2.1988499e-06 3.4262629e-07)
(0.0013410472 2.1532409e-06 3.3362017e-07)
(0.0013353099 2.1091955e-06 3.2494541e-07)
(0.001329695 2.0666366e-06 3.1657859e-07)
(0.0013241983 2.0254883e-06 3.0850054e-07)
(0.001318816 1.9856728e-06 3.0068988e-07)
(0.0013135446 1.9471141e-06 2.9313055e-07)
(0.0013083808 1.9097261e-06 2.8580579e-07)
(0.0013033213 1.8734232e-06 2.7870255e-07)
(0.0012983632 1.8381152e-06 2.7181639e-07)
(0.0012935038 1.803715e-06 2.6515364e-07)
(0.0012887402 1.7701717e-06 2.5874288e-07)
(0.0012840698 1.7375344e-06 2.5264959e-07)
(0.0012794889 1.7061224e-06 2.4701325e-07)
(0.0012749925 1.6769102e-06 2.4211423e-07)
(0.001270572 1.6524679e-06 2.385192e-07)
(0.0012662098 1.639334e-06 2.3765977e-07)
(0.0012618709 1.6545778e-06 2.4458239e-07)
(0.001257496 1.7463722e-06 2.7712474e-07)
(0.0012529717 2.0376722e-06 2.6526431e-07)
(0.0012433358 2.9514809e-06 1.352534e-06)
(0.0095221617 0.00021179965 0.00022180582)
(0.009269783 0.00029872516 0.00026628967)
(0.0088657772 0.00031669844 0.00025526743)
(0.0083755729 0.000317438 0.00023864265)
(0.0078888426 0.00030841043 0.00021987851)
(0.0074276349 0.00028848207 0.00019850458)
(0.006988258 0.00026048391 0.00017617916)
(0.0065698164 0.00022855168 0.00015444521)
(0.0061756011 0.00019596771 0.00013413534)
(0.0058087146 0.00016504408 0.00011567593)
(0.0054706295 0.00013728621 9.9270839e-05)
(0.0051615551 0.00011345265 8.4947832e-05)
(0.0048808654 9.3684507e-05 7.2600738e-05)
(0.0046272998 7.7712987e-05 6.20449e-05)
(0.0043991196 6.5057025e-05 5.3064543e-05)
(0.0041942886 5.5163887e-05 4.544363e-05)
(0.0040106431 4.7493347e-05 3.8982754e-05)
(0.0038460219 4.1561376e-05 3.3506382e-05)
(0.0036983537 3.6958194e-05 2.8864075e-05)
(0.0035657105 3.3351174e-05 2.4928487e-05)
(0.0034463343 3.0479503e-05 2.1592135e-05)
(0.003338646 2.8144767e-05 1.8764098e-05)
(0.003241243 2.6200154e-05 1.6367139e-05)
(0.0031528887 2.4539752e-05 1.4335369e-05)
(0.0030724986 2.3088867e-05 1.2612489e-05)
(0.0029991252 2.1796111e-05 1.1150134e-05)
(0.0029319421 2.0626904e-05 9.9064814e-06)
(0.0028702292 1.9558162e-05 8.8458152e-06)
(0.0028133589 1.8574037e-05 7.9385384e-06)
(0.0027607855 1.7663622e-05 7.1598228e-06)
(0.0027120345 1.6818833e-05 6.4890351e-06)
(0.0026666927 1.6033066e-05 5.90902e-06)
(0.0026243991 1.5301095e-05 5.4052718e-06)
(0.0025848382 1.461882e-05 4.965652e-06)
(0.0025477347 1.3982713e-05 4.5801151e-06)
(0.0025128472 1.3389544e-05 4.2403272e-06)
(0.002479964 1.2836281e-05 3.9393563e-06)
(0.0024488994 1.2320057e-05 3.6714255e-06)
(0.0024194896 1.1838143e-05 3.4317264e-06)
(0.00239159 1.1387938e-05 3.2162512e-06)
(0.0023650729 1.0966984e-05 3.0216607e-06)
(0.0023398248 1.0572998e-05 2.8451743e-06)
(0.0023157449 1.0203872e-05 2.684475e-06)
(0.0022927433 9.8575793e-06 2.5375941e-06)
(0.0022707398 9.5322156e-06 2.4028636e-06)
(0.002249662 9.2260287e-06 2.2788662e-06)
(0.0022294453 8.9374188e-06 2.1643999e-06)
(0.0022100312 8.6649301e-06 2.0584384e-06)
(0.0021913666 8.4072396e-06 1.9601015e-06)
(0.0021734038 8.163155e-06 1.8686316e-06)
(0.0021560989 7.9316216e-06 1.7833667e-06)
(0.0021394122 7.7117229e-06 1.7037076e-06)
(0.0021233074 7.5026017e-06 1.6291514e-06)
(0.0021077512 7.3033791e-06 1.5592831e-06)
(0.0020927129 7.1131879e-06 1.4937189e-06)
(0.0020781645 6.9314164e-06 1.432104e-06)
(0.0020640799 6.7576056e-06 1.374114e-06)
(0.0020504351 6.5912619e-06 1.3194619e-06)
(0.0020372075 6.4318786e-06 1.2678946e-06)
(0.0020243766 6.2790058e-06 1.2191874e-06)
(0.0020119231 6.1322412e-06 1.173132e-06)
(0.001999829 5.9912211e-06 1.1295429e-06)
(0.0019880776 5.8556117e-06 1.0882491e-06)
(0.0019766531 5.7251039e-06 1.0490961e-06)
(0.0019655411 5.5994073e-06 1.0119378e-06)
(0.0019547276 5.4782445e-06 9.7664642e-07)
(0.0019441999 5.3613898e-06 9.4310124e-07)
(0.0019339458 5.2486488e-06 9.1119025e-07)
(0.0019239539 5.1398185e-06 8.8080827e-07)
(0.0019142135 5.0347017e-06 8.5186018e-07)
(0.0019047144 4.9331182e-06 8.242592e-07)
(0.001895447 4.8348982e-06 7.9792461e-07)
(0.0018864023 4.7398899e-06 7.7278054e-07)
(0.0018775718 4.6479431e-06 7.4875592e-07)
(0.0018689473 4.5589219e-06 7.257881e-07)
(0.0018605211 4.4726994e-06 7.0381394e-07)
(0.0018522861 4.3891521e-06 6.8277726e-07)
(0.0018442353 4.3081699e-06 6.626253e-07)
(0.0018363621 4.2296381e-06 6.4330719e-07)
(0.0018286604 4.1534576e-06 6.2477685e-07)
(0.0018211241 4.0795274e-06 6.0698839e-07)
(0.0018137478 4.0077531e-06 5.8990107e-07)
(0.0018065261 3.9380351e-06 5.7347284e-07)
(0.001799454 3.8702792e-06 5.57667e-07)
(0.0017925266 3.8043821e-06 5.4244694e-07)
(0.0017857396 3.7402371e-06 5.2777923e-07)
(0.0017790885 3.6777267e-06 5.1363048e-07)
(0.0017725695 3.6167255e-06 4.9997029e-07)
(0.0017661787 3.5571079e-06 4.8677458e-07)
(0.0017599128 3.498761e-06 4.7402488e-07)
(0.0017537682 3.4416547e-06 4.617105e-07)
(0.0017477416 3.3859638e-06 4.498355e-07)
(0.0017418294 3.3323828e-06 4.3844199e-07)
(0.0017360272 3.2827922e-06 4.2764676e-07)
(0.0017303281 3.2417775e-06 4.1776961e-07)
(0.0017247202 3.2200415e-06 4.0999116e-07)
(0.001719183 3.2421562e-06 4.0985042e-07)
(0.001713691 3.364344e-06 4.4114427e-07)
(0.0017081999 3.7072196e-06 4.7353235e-07)
(0.0016974804 4.4611199e-06 1.8634981e-06)
(0.0095012861 0.00013951169 0.00022248511)
(0.0092133349 0.00022408324 0.00026709763)
(0.0088018509 0.0002570094 0.00025529581)
(0.0083306071 0.00026690691 0.0002382081)
(0.0078754299 0.00026502159 0.00021939836)
(0.0074527063 0.00025295651 0.00019823245)
(0.0070564396 0.00023295893 0.00017634609)
(0.0066827538 0.00020836345 0.0001552305)
(0.006331873 0.00018203353 0.00013558338)
(0.0060047052 0.00015603739 0.00011769036)
(0.0057015056 0.00013180401 0.00010166909)
(0.0054220192 0.00011020725 8.7524314e-05)
(0.0051656909 9.1631899e-05 7.5171985e-05)
(0.0049316845 7.6091184e-05 6.4472618e-05)
(0.0047188814 6.3363141e-05 5.5261149e-05)
(0.0045259349 5.3104941e-05 4.7366821e-05)
(0.0043513547 4.4932757e-05 4.0624899e-05)
(0.0041935865 3.847136e-05 3.4883033e-05)
(0.0040510752 3.3381245e-05 3.0003996e-05)
(0.0039223115 2.9370508e-05 2.5866182e-05)
(0.0038058643 2.6197263e-05 2.2362868e-05)
(0.0037004012 2.3666731e-05 1.9400963e-05)
(0.0036047 2.1625758e-05 1.6899611e-05)
(0.0035176529 1.9956326e-05 1.4788824e-05)
(0.0034382652 1.8569047e-05 1.3008105e-05)
(0.0033656513 1.7397361e-05 1.1504745e-05)
(0.0032990266 1.6392003e-05 1.0233523e-05)
(0.0032376995 1.5516241e-05 9.1565351e-06)
(0.0031810636 1.4743887e-05 8.2421125e-06)
(0.0031285885 1.4056152e-05 7.4635757e-06)
(0.0030798115 1.3438895e-05 6.7985199e-06)
(0.0030343294 1.2881153e-05 6.2282216e-06)
(0.0029917905 1.2374496e-05 5.7369833e-06)
(0.0029518882 1.1912421e-05 5.3116661e-06)
(0.0029143553 1.1489693e-05 4.9413536e-06)
(0.0028789586 1.1101929e-05 4.6170012e-06)
(0.0028454946 1.0745379e-05 4.3311217e-06)
(0.0028137847 1.0416774e-05 4.0775285e-06)
(0.0027836727 1.0113216e-05 3.8511086e-06)
(0.0027550209 9.8321194e-06 3.6476457e-06)
(0.0027277081 9.5711604e-06 3.4636647e-06)
(0.002701627 9.3282498e-06 3.2963007e-06)
(0.0026766823 9.1015144e-06 3.1431918e-06)
(0.0026527895 8.8892418e-06 3.0023824e-06)
(0.0026298729 8.6898913e-06 2.872256e-06)
(0.0026078648 8.5020877e-06 2.7514705e-06)
(0.002586704 8.3246159e-06 2.6389106e-06)
(0.0025663358 8.1563969e-06 2.5336422e-06)
(0.0025467102 7.9964766e-06 2.4348849e-06)
(0.002527782 7.8440266e-06 2.3419788e-06)
(0.0025095101 7.6983369e-06 2.2543616e-06)
(0.0024918566 7.5588099e-06 2.1715448e-06)
(0.0024747871 7.4248986e-06 2.0931131e-06)
(0.0024582699 7.2960211e-06 2.0187196e-06)
(0.0024422756 7.171438e-06 1.9480686e-06)
(0.0024267775 7.0509271e-06 1.8808987e-06)
(0.0024117506 6.9343759e-06 1.8169527e-06)
(0.0023971715 6.8214892e-06 1.7560016e-06)
(0.0023830185 6.7119556e-06 1.6978523e-06)
(0.0023692714 6.6055388e-06 1.6423287e-06)
(0.0023559116 6.502045e-06 1.5892725e-06)
(0.0023429214 6.4013093e-06 1.538538e-06)
(0.0023302844 6.3031799e-06 1.489994e-06)
(0.0023179851 6.2075236e-06 1.4435166e-06)
(0.0023060089 6.114202e-06 1.398994e-06)
(0.0022943424 6.023067e-06 1.3563254e-06)
(0.0022829727 5.9340575e-06 1.3154164e-06)
(0.0022718877 5.8471283e-06 1.2761705e-06)
(0.002261076 5.7622026e-06 1.2385021e-06)
(0.0022505267 5.6791968e-06 1.2023311e-06)
(0.0022402296 5.5980409e-06 1.1675824e-06)
(0.0022301752 5.5186708e-06 1.1341874e-06)
(0.0022203542 5.4410298e-06 1.102081e-06)
(0.002210758 5.3650621e-06 1.0711994e-06)
(0.0022013784 5.2907172e-06 1.0414841e-06)
(0.0021922076 5.2179477e-06 1.0128823e-06)
(0.0021832381 5.146709e-06 9.8533814e-07)
(0.0021744628 5.0769581e-06 9.5880298e-07)
(0.0021658752 5.00865e-06 9.3323026e-07)
(0.0021574688 4.9417439e-06 9.0857397e-07)
(0.0021492375 4.8761982e-06 8.8479109e-07)
(0.0021411756 4.8119663e-06 8.6183949e-07)
(0.0021332776 4.7489988e-06 8.3967883e-07)
(0.0021255383 4.6872386e-06 8.1827042e-07)
(0.0021179527 4.626623e-06 7.9757671e-07)
(0.0021105161 4.5670678e-06 7.7756039e-07)
(0.0021032242 4.508482e-06 7.5818461e-07)
(0.0020960727 4.4507553e-06 7.3941143e-07)
(0.0020890577 4.3937749e-06 7.2120264e-07)
(0.0020821756 4.3374542e-06 7.0352074e-07)
(0.002075423 4.2818088e-06 6.8632186e-07)
(0.0020687967 4.2271318e-06 6.6956183e-07)
(0.0020622937 4.1743522e-06 6.5320294e-07)
(0.002055911 4.1258136e-06 6.3726262e-07)
(0.0020496453 4.0868291e-06 6.2198477e-07)
(0.0020434926 4.0687763e-06 6.0874722e-07)
(0.0020374483 4.0948772e-06 6.0452208e-07)
(0.0020315149 4.2094268e-06 6.3987772e-07)
(0.0020256647 4.479749e-06 7.1688408e-07)
(0.0020144539 4.9057768e-06 2.2695252e-06)
(0.0094902877 9.6726607e-05 0.00022289229)
(0.00917661 0.00016632333 0.00026788105)
(0.0087449456 0.00019969046 0.00025550648)
(0.0082664657 0.00021101604 0.00023762681)
(0.00781215 0.0002109939 0.0002181603)
(0.0073950862 0.0002028236 0.00019646328)
(0.0070087986 0.00018827265 0.00017418493)
(0.006648835 0.00016968865 0.0001528463)
(0.0063142174 0.00014929331 0.00013312182)
(0.0060045996 0.00012875288 0.0001152379)
(0.0057192201 0.00010923291 9.9256791e-05)
(0.0054570682 9.1490072e-05 8.514891e-05)
(0.0052170782 7.59234e-05 7.2816212e-05)
(0.0049981259 6.264333e-05 6.2119134e-05)
(0.0047989841 5.156115e-05 5.2900047e-05)
(0.0046183234 4.2472277e-05 4.4997975e-05)
(0.0044547458 3.5118724e-05 3.8256897e-05)
(0.0043068267 2.9230542e-05 3.2530443e-05)
(0.0041731526 2.4550832e-05 2.768434e-05)
(0.0040523509 2.0849111e-05 2.3597362e-05)
(0.0039431142 1.7926912e-05 2.0161345e-05)
(0.0038442168 1.56186e-05 1.7280683e-05)
(0.0037545253 1.3789366e-05 1.4871531e-05)
(0.0036730042 1.233176e-05 1.2860863e-05)
(0.0035987172 1.1161539e-05 1.1185211e-05)
(0.0035308246 1.0213367e-05 9.7889742e-06)
(0.0034685786 9.4380826e-06 8.6250716e-06)
(0.0034113173 8.7971267e-06 7.6543154e-06)
(0.0033584589 8.2627195e-06 6.8439391e-06)
(0.0033094933 7.8140814e-06 6.1664543e-06)
(0.0032639753 7.4348238e-06 5.5988453e-06)
(0.0032215172 7.1121306e-06 5.1219262e-06)
(0.0031817817 6.8360971e-06 4.7197279e-06)
(0.0031444758 6.5990216e-06 4.3789738e-06)
(0.0031093448 6.3947816e-06 4.0886816e-06)
(0.0030761678 6.2184059e-06 3.8397985e-06)
(0.0030447526 6.0657965e-06 3.6248791e-06)
(0.003014932 5.9335275e-06 3.4378176e-06)
(0.0029865602 5.8186954e-06 3.273619e-06)
(0.0029595097 5.718818e-06 3.1282052e-06)
(0.002933669 5.6317499e-06 2.9982613e-06)
(0.0029089401 5.5556252e-06 2.8810974e-06)
(0.0028852364 5.4888225e-06 2.7745342e-06)
(0.0028624815 5.4299118e-06 2.67681e-06)
(0.0028406075 5.3776421e-06 2.5865047e-06)
(0.0028195538 5.3309215e-06 2.5024728e-06)
(0.0027992664 5.2888077e-06 2.4237891e-06)
(0.0027796963 5.2504817e-06 2.3497108e-06)
(0.0027607998 5.2152412e-06 2.2796375e-06)
(0.002742537 5.1824969e-06 2.2130838e-06)
(0.0027248717 5.1517658e-06 2.1496551e-06)
(0.0027077708 5.122668e-06 2.089023e-06)
(0.0026912041 5.0948945e-06 2.0309208e-06)
(0.0026751435 5.0680865e-06 1.9751364e-06)
(0.0026595636 5.0410646e-06 1.9215397e-06)
(0.0026444411 5.0142581e-06 1.8699675e-06)
(0.002629754 4.9880172e-06 1.8202521e-06)
(0.0026154815 4.962072e-06 1.7722787e-06)
(0.0026016045 4.9361406e-06 1.7259608e-06)
(0.0025881054 4.9100851e-06 1.6812143e-06)
(0.0025749674 4.8838321e-06 1.6379666e-06)
(0.002562175 4.8573392e-06 1.5961454e-06)
(0.0025497136 4.8305803e-06 1.5556927e-06)
(0.0025375693 4.8035385e-06 1.5165481e-06)
(0.0025257292 4.7761736e-06 1.4786616e-06)
(0.002514181 4.7483826e-06 1.4419871e-06)
(0.0025029134 4.7202748e-06 1.4064842e-06)
(0.0024919154 4.6919132e-06 1.3721019e-06)
(0.0024811765 4.6632883e-06 1.3387976e-06)
(0.002470687 4.6343993e-06 1.3065282e-06)
(0.0024604377 4.6052662e-06 1.27526e-06)
(0.0024504197 4.5759074e-06 1.2449548e-06)
(0.0024406247 4.5463451e-06 1.2155761e-06)
(0.0024310448 4.5166e-06 1.1870922e-06)
(0.0024216723 4.4866955e-06 1.1594726e-06)
(0.0024125001 4.4566503e-06 1.1326844e-06)
(0.0024035213 4.4264891e-06 1.1066968e-06)
(0.0023947295 4.3962288e-06 1.0814832e-06)
(0.0023861184 4.3658904e-06 1.0570133e-06)
(0.0023776821 4.3354856e-06 1.0332602e-06)
(0.0023694149 4.3050324e-06 1.0101959e-06)
(0.0023613115 4.2745347e-06 9.8779616e-07)
(0.0023533667 4.2439933e-06 9.660312e-07)
(0.0023455757 4.213396e-06 9.4487474e-07)
(0.0023379338 4.1827219e-06 9.2429972e-07)
(0.0023304365 4.1519268e-06 9.042762e-07)
(0.0023230798 4.1209539e-06 8.8477242e-07)
(0.0023158598 4.089726e-06 8.6575214e-07)
(0.0023087726 4.0581562e-06 8.4717241e-07)
(0.002301815 4.0261909e-06 8.2898006e-07)
(0.0022949838 3.9938742e-06 8.1110695e-07)
(0.0022882766 3.9615294e-06 7.9346314e-07)
(0.002281691 3.9300761e-06 7.7594406e-07)
(0.0022752261 3.9016893e-06 7.5847839e-07)
(0.002268882 3.8809393e-06 7.4124691e-07)
(0.0022626608 3.8766475e-06 7.2572657e-07)
(0.0022565686 3.9043045e-06 7.1957919e-07)
(0.0022506189 3.9866564e-06 7.5579958e-07)
(0.0022447715 4.1391013e-06 8.4931761e-07)
(0.002233564 4.2832249e-06 2.4122115e-06)
(0.0094843561 6.6886586e-05 0.00022303624)
(0.0091549219 0.00011904886 0.00026838771)
(0.0087072816 0.00014772496 0.00025588053)
(0.0082191888 0.00015892952 0.00023765677)
(0.0077602858 0.00016026049 0.00021787143)
(0.0073412804 0.00015505102 0.00019586613)
(0.0069552494 0.00014481701 0.00017327438)
(0.0065978366 0.00013121474 0.00015165024)
(0.0062677954 0.00011592881 0.00013169211)
(0.0059642872 0.00010028521 0.0001136244)
(0.0056860598 8.5214431e-05 9.7497523e-05)
(0.0054316726 7.1330408e-05 8.3272195e-05)
(0.0051997008 5.8984298e-05 7.0844883e-05)
(0.0049887459 4.8311754e-05 6.0073373e-05)
(0.0047973943 3.9291581e-05 5.079889e-05)
(0.0046242055 3.1804353e-05 4.2859901e-05)
(0.0044677269 2.5679085e-05 3.6099807e-05)
(0.0043265179 2.0725784e-05 3.0371292e-05)
(0.0041991724 1.6756343e-05 2.5538702e-05)
(0.004084339 1.3596838e-05 2.1479083e-05)
(0.0039807371 1.1093753e-05 1.8082323e-05)
(0.0038871692 9.116164e-06 1.525079e-05)
(0.0038025288 7.5553807e-06 1.2898646e-05)
(0.003725804 6.323135e-06 1.0950986e-05)
(0.0036560786 5.3488192e-06 9.342678e-06)
(0.0035925304 4.5751815e-06 8.0166129e-06)
(0.0035344253 3.9621e-06 6.9239487e-06)
(0.0034811131 3.4726259e-06 6.0250726e-06)
(0.0034320221 3.0815188e-06 5.2862625e-06)
(0.0033866501 2.770276e-06 4.6792107e-06)
(0.0033445586 2.5236723e-06 4.1805211e-06)
(0.0033053662 2.3295849e-06 3.7707527e-06)
(0.0032687419 2.1784978e-06 3.4337454e-06)
(0.0032343982 2.0629064e-06 3.1561116e-06)
(0.0032020863 1.9768103e-06 2.9267974e-06)
(0.0031715907 1.9153175e-06 2.7367035e-06)
(0.0031427248 1.8743802e-06 2.578355e-06)
(0.0031153267 1.8506045e-06 2.4456284e-06)
(0.0030892563 1.8411242e-06 2.3335224e-06)
(0.0030643915 1.843498e-06 2.2379668e-06)
(0.003040626 1.8556427e-06 2.1556634e-06)
(0.0030178671 1.8757786e-06 2.0839521e-06)
(0.0029960335 1.9023784e-06 2.0206939e-06)
(0.0029750538 1.9341332e-06 1.9641802e-06)
(0.0029548649 1.9699137e-06 1.9130519e-06)
(0.0029354109 2.0087611e-06 1.8662274e-06)
(0.0029166424 2.049857e-06 1.8228521e-06)
(0.0028985148 2.0925088e-06 1.7822577e-06)
(0.0028809886 2.1361366e-06 1.7439142e-06)
(0.0028640277 2.1802701e-06 1.7074099e-06)
(0.0028476 2.2245505e-06 1.6724145e-06)
(0.0028316758 2.2687586e-06 1.6386561e-06)
(0.0028162284 2.3128913e-06 1.6058723e-06)
(0.0028012324 2.3570788e-06 1.5738229e-06)
(0.0027866658 2.3978699e-06 1.5431881e-06)
(0.0027725089 2.4362346e-06 1.5136868e-06)
(0.0027587418 2.4734391e-06 1.4848894e-06)
(0.002745346 2.5095341e-06 1.456702e-06)
(0.002732305 2.5443499e-06 1.4291164e-06)
(0.0027196032 2.5777723e-06 1.4021117e-06)
(0.0027072261 2.6097242e-06 1.3756647e-06)
(0.0026951602 2.6401657e-06 1.3497558e-06)
(0.0026833928 2.6690889e-06 1.3243755e-06)
(0.0026719116 2.6965033e-06 1.2995084e-06)
(0.0026607054 2.7223707e-06 1.2751521e-06)
(0.0026497635 2.7463553e-06 1.2513133e-06)
(0.002639076 2.7689082e-06 1.2279786e-06)
(0.0026286333 2.7901463e-06 1.2051293e-06)
(0.0026184262 2.8099918e-06 1.1827609e-06)
(0.0026084461 2.8284303e-06 1.1608699e-06)
(0.0025986849 2.8454921e-06 1.1394499e-06)
(0.0025891348 2.8612171e-06 1.118491e-06)
(0.0025797885 2.8756476e-06 1.097987e-06)
(0.002570639 2.8888289e-06 1.0779289e-06)
(0.0025616795 2.9008053e-06 1.0583092e-06)
(0.0025529038 2.911619e-06 1.0391196e-06)
(0.0025443058 2.921314e-06 1.0203486e-06)
(0.0025358796 2.9299304e-06 1.0019894e-06)
(0.0025276198 2.9375067e-06 9.8403169e-07)
(0.002519521 2.9440782e-06 9.6646501e-07)
(0.0025115783 2.9496792e-06 9.4927884e-07)
(0.0025037869 2.9543366e-06 9.3246206e-07)
(0.0024961421 2.9580674e-06 9.1600055e-07)
(0.0024886396 2.9608815e-06 8.9988018e-07)
(0.0024812752 2.9627731e-06 8.8408443e-07)
(0.002474045 2.9637229e-06 8.6859341e-07)
(0.0024669452 2.9636881e-06 8.5338203e-07)
(0.0024599723 2.9626127e-06 8.3841441e-07)
(0.0024531231 2.9604302e-06 8.2364361e-07)
(0.0024463945 2.9570966e-06 8.0900346e-07)
(0.0024397839 2.9526508e-06 7.9439947e-07)
(0.0024332895 2.9473509e-06 7.7969468e-07)
(0.0024269099 2.9419121e-06 7.6470951e-07)
(0.0024206457 2.93792e-06 7.4926079e-07)
(0.0024144993 2.9384188e-06 7.3336441e-07)
(0.0024084767 2.9484959e-06 7.1826458e-07)
(0.0024025877 2.9751252e-06 7.1113383e-07)
(0.002396846 3.0234608e-06 7.4331311e-07)
(0.0023911946 3.0808301e-06 8.3046572e-07)
(0.0023803644 3.0574255e-06 2.2999442e-06)
(0.0094810492 4.4090136e-05 0.00022308885)
(0.0091422796 7.9975483e-05 0.00026874495)
(0.0086839084 0.00010160921 0.00025628771)
(0.0081880903 0.00011101591 0.00023793456)
(0.0077246858 0.00011275117 0.00021798622)
(0.0073029895 0.00010953687 0.00019578738)
(0.0069155191 0.00010266029 0.00017296032)
(0.0065579578 9.3267235e-05 0.0001510852)
(0.006229001 8.2539593e-05 0.00013089045)
(0.005927585 7.1446832e-05 0.00011261412)
(0.0056522063 6.0673359e-05 9.6309239e-05)
(0.0054012005 5.0670807e-05 8.1936268e-05)
(0.0051729477 4.1706607e-05 6.9390831e-05)
(0.004965887 3.3898115e-05 5.8529097e-05)
(0.0047784814 2.7249954e-05 4.9189878e-05)
(0.0046092054 2.1693072e-05 4.1208774e-05)
(0.0044565535 1.7117436e-05 3.4426144e-05)
(0.0043190553 1.3395519e-05 2.8691659e-05)
(0.0041952917 1.0397812e-05 2.3866804e-05)
(0.0040839086 8.0023306e-06 1.9826012e-05)
(0.0039836292 6.0997696e-06 1.645686e-05)
(0.0038932634 4.5956629e-06 1.3659715e-05)
(0.0038117126 3.4106736e-06 1.1347012e-05)
(0.0037379734 2.4799288e-06 9.4422918e-06)
(0.0036711359 1.7515114e-06 7.8790894e-06)
(0.0036103859 1.174905e-06 6.601033e-06)
(0.0035549935 7.2234115e-07 5.5561203e-06)
(0.0035043108 3.7342434e-07 4.7060688e-06)
(0.0034577717 1.0569483e-07 4.0163437e-06)
(0.0034148763 -9.9090955e-08 3.4574137e-06)
(0.0033751872 -2.533372e-07 3.0054957e-06)
(0.0033383243 -3.6640086e-07 2.640974e-06)
(0.0033039576 -4.4577934e-07 2.3475728e-06)
(0.0032718009 -4.974834e-07 2.1118259e-06)
(0.0032416065 -5.2634549e-07 1.9226409e-06)
(0.0032131599 -5.3631044e-07 1.7709142e-06)
(0.0031862758 -5.306409e-07 1.6492014e-06)
(0.0031607936 -5.1206343e-07 1.5514404e-06)
(0.0031365743 -4.8287297e-07 1.4727096e-06)
(0.0031134976 -4.4500785e-07 1.4090327e-06)
(0.0030914586 -4.0011307e-07 1.3572056e-06)
(0.0030703663 -3.4958024e-07 1.3146567e-06)
(0.0030501409 -2.9459581e-07 1.2793316e-06)
(0.0030307129 -2.3616939e-07 1.2495908e-06)
(0.0030120207 -1.7516591e-07 1.2241399e-06)
(0.0029940105 -1.1232112e-07 1.2019533e-06)
(0.0029766343 -4.8268503e-08 1.182223e-06)
(0.0029598495 1.6449583e-08 1.1643216e-06)
(0.0029436181 8.1354441e-08 1.1477523e-06)
(0.002927906 1.4602395e-07 1.1321238e-06)
(0.0029126825 2.1005866e-07 1.1171184e-06)
(0.0028979201 2.7304784e-07 1.1024397e-06)
(0.0028835935 3.3454034e-07 1.0876603e-06)
(0.0028696773 3.9432316e-07 1.0722026e-06)
(0.0028561514 4.5704789e-07 1.0590083e-06)
(0.0028429997 5.2059968e-07 1.0472576e-06)
(0.0028302035 5.8225231e-07 1.0356074e-06)
(0.0028177449 6.416372e-07 1.0238017e-06)
(0.0028056084 6.9901842e-07 1.0118752e-06)
(0.0027937799 7.5455982e-07 9.9986894e-07)
(0.0027822461 8.0835046e-07 9.8781005e-07)
(0.0027709946 8.6046906e-07 9.7571845e-07)
(0.0027600137 9.1102678e-07 9.6360262e-07)
(0.0027492926 9.6019406e-07 9.514472e-07)
(0.0027388207 1.0080045e-06 9.392667e-07)
(0.0027285887 1.0528497e-06 9.2746523e-07)
(0.0027185878 1.0958661e-06 9.1582963e-07)
(0.0027088089 1.1375e-06 9.0425393e-07)
(0.0026992438 1.1777663e-06 8.9275976e-07)
(0.0026898847 1.2166571e-06 8.8136681e-07)
(0.0026807244 1.2541695e-06 8.7008055e-07)
(0.0026717559 1.2903141e-06 8.5890695e-07)
(0.0026629726 1.3251063e-06 8.4785344e-07)
(0.0026543682 1.3585716e-06 8.3692303e-07)
(0.0026459367 1.3907384e-06 8.2612133e-07)
(0.0026376723 1.4216345e-06 8.1545249e-07)
(0.0026295698 1.4512888e-06 8.0491872e-07)
(0.0026216238 1.479732e-06 7.9452275e-07)
(0.0026138294 1.5069898e-06 7.8426337e-07)
(0.002606182 1.5330924e-06 7.7414014e-07)
(0.0025986769 1.5580615e-06 7.6415229e-07)
(0.0025913099 1.5819215e-06 7.5429583e-07)
(0.0025840769 1.604681e-06 7.4456448e-07)
(0.0025769739 1.62635e-06 7.3495226e-07)