/*--------------------------------*- C++ -*----------------------------------*\
  =========                 |
  \\      /  F ield         | OpenFOAM: The Open Source CFD Toolbox
   \\    /   O peration     | Website:  https://openfoam.org
    \\  /    A nd           | Version:  7
     \\/     M anipulation  |
\*---------------------------------------------------------------------------*/
FoamFile
{
    version     2.0;
    format      ascii;
    class       volVectorField;
    location    "650/water";
    object      U;
}
// * * * * * * * * * * * * * * * * * * * * * * * * * * * * * * * * * * * * * //

dimensions      [0 1 -1 0 0 0 0];

internalField   nonuniform List<vector> 
54000
(
(0.0090020934 0.00020305973 0.00020444027)
(0.0083186447 0.00023622738 0.00023904411)
(0.0073695241 0.00021363852 0.00021763527)
(0.0063566114 0.00018488016 0.00018965819)
(0.0054486673 0.00015530836 0.00016048633)
(0.0046741594 0.00012529952 0.00013052937)
(0.0040193038 9.7052612e-05 0.00010203017)
(0.0034740067 7.2579e-05 7.7073287e-05)
(0.0030302461 5.2876127e-05 5.6738329e-05)
(0.0026757323 3.8068151e-05 4.1216513e-05)
(0.0023947254 2.7637704e-05 3.0037141e-05)
(0.0021713898 2.0689034e-05 2.2336508e-05)
(0.0019919695 1.6236161e-05 1.7152703e-05)
(0.0018455015 1.3416237e-05 1.3643172e-05)
(0.0017237326 1.158249e-05 1.1179121e-05)
(0.0016206928 1.0304891e-05 9.3455808e-06)
(0.0015321593 9.3257901e-06 7.8957159e-06)
(0.0014551546 8.5052961e-06 6.6953097e-06)
(0.0013875459 7.774634e-06 5.6760574e-06)
(0.0013277612 7.1034287e-06 4.8034865e-06)
(0.001274601 6.4798504e-06 4.0581561e-06)
(0.0012271179 5.8999463e-06 3.426158e-06)
(0.0011845424 5.3625298e-06 2.8950714e-06)
(0.001146235 4.8670216e-06 2.4526293e-06)
(0.0011116558 4.4125996e-06 2.0869758e-06)
(0.0010803434 3.9980135e-06 1.7867452e-06)
(0.0010519002 3.6214591e-06 1.5416133e-06)
(0.0010259819 3.2805937e-06 1.3421855e-06)
(0.001002289 2.9733955e-06 1.1797305e-06)
(0.00098056199 2.6979492e-06 1.0463199e-06)
(0.00096057571 2.451921e-06 9.3658919e-07)
(0.00094213242 2.2325663e-06 8.4693372e-07)
(0.00092505792 2.0373869e-06 7.7316691e-07)
(0.00090920047 1.8640897e-06 7.1184297e-07)
(0.00089442818 1.7104631e-06 6.6046724e-07)
(0.0008806259 1.5743822e-06 6.1707358e-07)
(0.00086769295 1.4538618e-06 5.8005376e-07)
(0.00085554128 1.3470713e-06 5.4811438e-07)
(0.00084409387 1.2523497e-06 5.2023953e-07)
(0.00083328322 1.1681984e-06 4.9562815e-07)
(0.00082305015 1.0932619e-06 4.736529e-07)
(0.00081334267 1.0262302e-06 4.5378272e-07)
(0.00080411486 9.6585904e-07 4.3554476e-07)
(0.00079532615 9.1131015e-07 4.1865034e-07)
(0.0007869407 8.6191707e-07 4.0290727e-07)
(0.00077892675 8.1708354e-07 3.8816765e-07)
(0.00077125603 7.7627665e-07 3.7432104e-07)
(0.0007639033 7.3902626e-07 3.6127553e-07)
(0.00075684597 7.0491483e-07 3.4896369e-07)
(0.00075006373 6.7357541e-07 3.3733106e-07)
(0.00074353822 6.4469437e-07 3.2633634e-07)
(0.00073725294 6.1802554e-07 3.1581769e-07)
(0.00073119314 5.9334726e-07 3.0574372e-07)
(0.00072534528 5.7042023e-07 2.9621145e-07)
(0.00071969687 5.4902583e-07 2.8716666e-07)
(0.00071423653 5.2901427e-07 2.7854387e-07)
(0.00070895386 5.1027275e-07 2.703116e-07)
(0.00070383928 4.9268685e-07 2.6244826e-07)
(0.00069888397 4.7614494e-07 2.5493164e-07)
(0.00069407976 4.6055099e-07 2.4774318e-07)
(0.00068941911 4.4582079e-07 2.4086368e-07)
(0.00068489502 4.3188443e-07 2.3427564e-07)
(0.00068050098 4.1867926e-07 2.2796434e-07)
(0.00067623091 4.0614624e-07 2.2191184e-07)
(0.00067207915 3.9423542e-07 2.1610495e-07)
(0.00066804042 3.8289697e-07 2.1053165e-07)
(0.00066410976 3.7209456e-07 2.0517805e-07)
(0.00066028251 3.6179369e-07 2.0003265e-07)
(0.00065655429 3.5196237e-07 1.9508366e-07)
(0.00065292099 3.4256986e-07 1.9031886e-07)
(0.00064937872 3.3358609e-07 1.8572877e-07)
(0.00064592384 3.2498826e-07 1.8130614e-07)
(0.00064255288 3.167518e-07 1.7703989e-07)
(0.00063926261 3.08857e-07 1.7292432e-07)
(0.00063604992 3.0128303e-07 1.6894997e-07)
(0.00063291192 2.9401345e-07 1.6511016e-07)
(0.00062984583 2.8703186e-07 1.6139695e-07)
(0.00062684904 2.8032155e-07 1.5780412e-07)
(0.00062391907 2.7387093e-07 1.5432115e-07)
(0.00062105358 2.6766533e-07 1.5094302e-07)
(0.00061825035 2.6169461e-07 1.4766092e-07)
(0.00061550727 2.5594557e-07 1.4446924e-07)
(0.00061282235 2.5040771e-07 1.4135973e-07)
(0.00061019373 2.4506835e-07 1.3832461e-07)
(0.00060761965 2.3992007e-07 1.3535539e-07)
(0.00060509846 2.3494546e-07 1.324485e-07)
(0.00060262863 2.3013533e-07 1.2959844e-07)
(0.00060020873 2.2547006e-07 1.2680454e-07)
(0.00059783744 2.2093189e-07 1.2407523e-07)
(0.00059551348 2.1649901e-07 1.2143312e-07)
(0.00059323555 2.1214941e-07 1.1892842e-07)
(0.00059100214 2.07872e-07 1.1666238e-07)
(0.00058881114 2.0369046e-07 1.1483107e-07)
(0.00058665898 1.9973101e-07 1.1382013e-07)
(0.0005845387 1.9638507e-07 1.1441073e-07)
(0.00058243501 1.948734e-07 1.1837391e-07)
(0.00058031396 1.99776e-07 1.3094361e-07)
(0.0005781161 2.2258457e-07 1.6397609e-07)
(0.00057566369 1.9706893e-07 1.5080613e-07)
(0.00056906201 7.8896417e-07 7.5322494e-07)
(0.0095316863 0.0003313754 0.00022336697)
(0.0092716504 0.00041105943 0.00027052342)
(0.0087756651 0.00040317187 0.00026060062)
(0.0081527518 0.00038218754 0.00024252081)
(0.0075302151 0.00035309574 0.00022101125)
(0.0069425889 0.00031541063 0.00019648834)
(0.006391209 0.00027309198 0.00017102969)
(0.0058791845 0.00023030694 0.00014652546)
(0.0054120202 0.00019001855 0.00012410997)
(0.0049926512 0.00015423459 0.00010436627)
(0.004620592 0.00012408347 8.7479017e-05)
(0.0042931332 9.9809402e-05 7.3327495e-05)
(0.0040063965 8.0956424e-05 6.1601503e-05)
(0.0037559538 6.6672211e-05 5.1918794e-05)
(0.0035372541 5.5985802e-05 4.3907444e-05)
(0.003345947 4.7992056e-05 3.7246645e-05)
(0.0031780884 4.194171e-05 3.167753e-05)
(0.0030302311 3.7262446e-05 2.6997921e-05)
(0.0028994324 3.3540996e-05 2.3051137e-05)
(0.0027832152 3.0490245e-05 1.9714593e-05)
(0.0026795075 2.7915737e-05 1.6890544e-05)
(0.0025865783 2.5687842e-05 1.4499382e-05)
(0.002502978 2.3720891e-05 1.2475015e-05)
(0.0024274871 2.195843e-05 1.0761725e-05)
(0.0023590736 2.0362993e-05 9.3122316e-06)
(0.0022968589 1.8909455e-05 8.0861288e-06)
(0.0022400906 1.7580767e-05 7.0489628e-06)
(0.0021881216 1.6364897e-05 6.1714973e-06)
(0.0021403932 1.5251963e-05 5.4283141e-06)
(0.0020964214 1.4233849e-05 4.7973501e-06)
(0.0020557868 1.330304e-05 4.2604822e-06)
(0.0020181236 1.2451986e-05 3.8027033e-06)
(0.0019831119 1.1673908e-05 3.4109602e-06)
(0.0019504718 1.0962755e-05 3.0744208e-06)
(0.0019199589 1.0312854e-05 2.7842603e-06)
(0.0018913593 9.7188329e-06 2.5331807e-06)
(0.0018644851 9.175645e-06 2.3150739e-06)
(0.0018391716 8.6785721e-06 2.1248304e-06)
(0.0018152735 8.2232425e-06 1.9581838e-06)
(0.0017926629 7.8056204e-06 1.8115676e-06)
(0.0017712268 7.4219989e-06 1.6820114e-06)
(0.001750865 7.0689373e-06 1.567069e-06)
(0.0017314886 6.7432688e-06 1.4647429e-06)
(0.0017130186 6.4422721e-06 1.3732752e-06)
(0.0016953848 6.1635569e-06 1.291159e-06)
(0.0016785241 5.9049787e-06 1.2171191e-06)
(0.00166238 5.6646096e-06 1.1500841e-06)
(0.0016469019 5.4407259e-06 1.0891491e-06)
(0.001632044 5.2317785e-06 1.0335542e-06)
(0.0016177648 5.0363858e-06 9.8265341e-07)
(0.0016040271 4.8533231e-06 9.3589336e-07)
(0.0015907965 4.6815622e-06 8.9273613e-07)
(0.0015780424 4.5201567e-06 8.5278677e-07)
(0.0015657364 4.3681553e-06 8.1577098e-07)
(0.0015538526 4.224684e-06 7.8138535e-07)
(0.0015423672 4.0890592e-06 7.493452e-07)
(0.0015312583 3.9607267e-06 7.1941261e-07)
(0.0015205058 3.839151e-06 6.913865e-07)
(0.0015100909 3.7238126e-06 6.6509366e-07)
(0.0014999963 3.6142435e-06 6.4037976e-07)
(0.0014902061 3.5100299e-06 6.1710828e-07)
(0.0014807053 3.4107985e-06 5.9516069e-07)
(0.00147148 3.3162125e-06 5.7442745e-07)
(0.0014625175 3.225959e-06 5.548145e-07)
(0.0014538055 3.1397549e-06 5.362358e-07)
(0.0014453328 3.0573347e-06 5.1861331e-07)
(0.0014370889 2.9784715e-06 5.0187912e-07)
(0.0014290637 2.9029582e-06 4.8596851e-07)
(0.001421248 2.8306031e-06 4.7082469e-07)
(0.001413633 2.7612186e-06 4.5639376e-07)
(0.0014062104 2.6946333e-06 4.4262834e-07)
(0.0013989723 2.6306913e-06 4.2948749e-07)
(0.0013919116 2.5692454e-06 4.1693034e-07)
(0.0013850211 2.5101638e-06 4.0492061e-07)
(0.0013782945 2.4533189e-06 3.934254e-07)
(0.0013717253 2.3985957e-06 3.8241115e-07)
(0.0013653078 2.345885e-06 3.7185187e-07)
(0.0013590364 2.2950852e-06 3.6171837e-07)
(0.0013529058 2.2461036e-06 3.5198497e-07)
(0.001346911 2.198851e-06 3.4262715e-07)
(0.0013410472 2.1532428e-06 3.336201e-07)
(0.0013353099 2.1091977e-06 3.2494475e-07)
(0.001329695 2.066638e-06 3.1657916e-07)
(0.0013241983 2.0254869e-06 3.0850083e-07)
(0.001318816 1.9856733e-06 3.0068963e-07)
(0.0013135446 1.9471125e-06 2.9313059e-07)
(0.0013083808 1.9097275e-06 2.8580412e-07)
(0.0013033213 1.8734234e-06 2.7870191e-07)
(0.0012983632 1.8381147e-06 2.7181622e-07)
(0.0012935038 1.8037149e-06 2.6515303e-07)
(0.0012887402 1.7701702e-06 2.5874257e-07)
(0.0012840698 1.7375336e-06 2.5265028e-07)
(0.0012794889 1.7061219e-06 2.4701434e-07)
(0.0012749925 1.6769092e-06 2.4211369e-07)
(0.001270572 1.6524681e-06 2.3851847e-07)
(0.0012662098 1.6393339e-06 2.3765935e-07)
(0.0012618709 1.6545775e-06 2.4458209e-07)
(0.0012574959 1.7463721e-06 2.7712477e-07)
(0.0012529717 2.0376715e-06 2.6526465e-07)
(0.0012433358 2.9514819e-06 1.3525338e-06)
(0.0095221617 0.00021179965 0.00022180581)
(0.009269783 0.00029872516 0.00026628967)
(0.0088657772 0.00031669844 0.00025526743)
(0.0083755729 0.000317438 0.00023864265)
(0.0078888426 0.00030841043 0.00021987851)
(0.0074276349 0.00028848207 0.00019850458)
(0.006988258 0.00026048391 0.00017617916)
(0.0065698164 0.00022855168 0.00015444521)
(0.0061756011 0.00019596771 0.00013413534)
(0.0058087146 0.00016504408 0.00011567593)
(0.0054706295 0.00013728621 9.9270838e-05)
(0.0051615551 0.00011345265 8.4947831e-05)
(0.0048808654 9.3684507e-05 7.2600737e-05)
(0.0046272998 7.7712987e-05 6.20449e-05)
(0.0043991196 6.5057026e-05 5.3064542e-05)
(0.0041942886 5.5163888e-05 4.5443629e-05)
(0.0040106431 4.7493348e-05 3.8982753e-05)
(0.0038460219 4.1561377e-05 3.350638e-05)
(0.0036983537 3.6958194e-05 2.8864075e-05)
(0.0035657105 3.3351177e-05 2.4928487e-05)
(0.0034463343 3.0479503e-05 2.1592135e-05)
(0.003338646 2.8144769e-05 1.8764099e-05)
(0.003241243 2.6200154e-05 1.6367139e-05)
(0.0031528887 2.4539752e-05 1.4335369e-05)
(0.0030724986 2.3088866e-05 1.261249e-05)
(0.0029991252 2.1796113e-05 1.1150134e-05)
(0.0029319421 2.0626906e-05 9.9064819e-06)
(0.0028702292 1.9558163e-05 8.845816e-06)
(0.0028133589 1.8574036e-05 7.9385376e-06)
(0.0027607855 1.7663622e-05 7.1598232e-06)
(0.0027120345 1.6818832e-05 6.4890361e-06)
(0.0026666927 1.6033066e-05 5.9090205e-06)
(0.0026243991 1.5301095e-05 5.4052724e-06)
(0.0025848382 1.4618818e-05 4.9656527e-06)
(0.0025477347 1.3982712e-05 4.5801141e-06)
(0.0025128472 1.3389542e-05 4.240327e-06)
(0.002479964 1.2836281e-05 3.9393557e-06)
(0.0024488994 1.2320058e-05 3.6714251e-06)
(0.0024194896 1.1838145e-05 3.4317271e-06)
(0.00239159 1.138794e-05 3.2162521e-06)
(0.0023650729 1.0966987e-05 3.0216603e-06)
(0.0023398248 1.0572999e-05 2.8451732e-06)
(0.0023157449 1.0203875e-05 2.6844742e-06)
(0.0022927433 9.8575811e-06 2.5375946e-06)
(0.0022707398 9.5322159e-06 2.4028642e-06)
(0.002249662 9.226029e-06 2.2788661e-06)
(0.0022294453 8.9374187e-06 2.1644e-06)
(0.0022100312 8.6649297e-06 2.0584375e-06)
(0.0021913666 8.4072387e-06 1.9601007e-06)
(0.0021734038 8.1631565e-06 1.8686313e-06)
(0.0021560989 7.9316218e-06 1.7833668e-06)
(0.0021394122 7.7117239e-06 1.7037078e-06)
(0.0021233074 7.5026023e-06 1.6291514e-06)
(0.0021077512 7.303381e-06 1.5592839e-06)
(0.0020927129 7.1131888e-06 1.4937191e-06)
(0.0020781645 6.9314153e-06 1.4321049e-06)
(0.0020640799 6.7576043e-06 1.3741147e-06)
(0.0020504351 6.5912605e-06 1.3194619e-06)
(0.0020372075 6.4318781e-06 1.2678947e-06)
(0.0020243766 6.2790054e-06 1.2191872e-06)
(0.0020119231 6.1322406e-06 1.1731321e-06)
(0.001999829 5.9912208e-06 1.1295429e-06)
(0.0019880776 5.855612e-06 1.0882498e-06)
(0.0019766531 5.7251044e-06 1.0490949e-06)
(0.0019655411 5.5994078e-06 1.0119376e-06)
(0.0019547276 5.4782454e-06 9.7664618e-07)
(0.0019441999 5.3613912e-06 9.4310072e-07)
(0.0019339458 5.2486483e-06 9.1118981e-07)
(0.0019239539 5.1398192e-06 8.8080749e-07)
(0.0019142135 5.0347019e-06 8.5186068e-07)
(0.0019047144 4.9331189e-06 8.2425955e-07)
(0.001895447 4.8349e-06 7.9792442e-07)
(0.0018864023 4.7398901e-06 7.7278061e-07)
(0.0018775718 4.6479437e-06 7.4875669e-07)
(0.0018689473 4.5589232e-06 7.2578718e-07)
(0.0018605211 4.4727004e-06 7.0381375e-07)
(0.0018522861 4.3891522e-06 6.8277693e-07)
(0.0018442353 4.3081687e-06 6.6262558e-07)
(0.0018363621 4.2296376e-06 6.4330802e-07)
(0.0018286604 4.1534594e-06 6.2477734e-07)
(0.0018211241 4.0795307e-06 6.0698821e-07)
(0.0018137478 4.007755e-06 5.8990035e-07)
(0.0018065261 3.9380366e-06 5.7347311e-07)
(0.001799454 3.8702783e-06 5.5766753e-07)
(0.0017925266 3.8043812e-06 5.4244762e-07)
(0.0017857396 3.740236e-06 5.2777805e-07)
(0.0017790885 3.6777278e-06 5.1362994e-07)
(0.0017725695 3.6167254e-06 4.999702e-07)
(0.0017661787 3.5571066e-06 4.8677467e-07)
(0.0017599128 3.498761e-06 4.7402491e-07)
(0.0017537682 3.4416537e-06 4.6171019e-07)
(0.0017477416 3.3859635e-06 4.4983649e-07)
(0.0017418294 3.3323832e-06 4.3844273e-07)
(0.0017360272 3.282792e-06 4.276462e-07)
(0.0017303281 3.2417778e-06 4.1776822e-07)
(0.0017247202 3.2200417e-06 4.0999157e-07)
(0.001719183 3.2421556e-06 4.0985009e-07)
(0.001713691 3.364345e-06 4.4114419e-07)
(0.0017081999 3.7072201e-06 4.7353417e-07)
(0.0016974804 4.4611197e-06 1.8634997e-06)
(0.0095012861 0.00013951169 0.00022248511)
(0.0092133349 0.00022408324 0.00026709763)
(0.0088018509 0.0002570094 0.00025529581)
(0.0083306071 0.00026690691 0.0002382081)
(0.0078754299 0.00026502159 0.00021939837)
(0.0074527063 0.00025295651 0.00019823245)
(0.0070564396 0.00023295893 0.00017634609)
(0.0066827538 0.00020836345 0.0001552305)
(0.006331873 0.00018203353 0.00013558338)
(0.0060047052 0.00015603739 0.00011769036)
(0.0057015056 0.00013180401 0.00010166909)
(0.0054220192 0.00011020724 8.7524315e-05)
(0.0051656909 9.1631899e-05 7.5171986e-05)
(0.0049316845 7.6091185e-05 6.4472618e-05)
(0.0047188814 6.3363142e-05 5.5261149e-05)
(0.0045259349 5.3104942e-05 4.7366821e-05)
(0.0043513547 4.4932757e-05 4.0624899e-05)
(0.0041935865 3.847136e-05 3.4883032e-05)
(0.0040510752 3.3381246e-05 3.0003995e-05)
(0.0039223115 2.937051e-05 2.5866183e-05)
(0.0038058643 2.6197262e-05 2.2362868e-05)
(0.0037004012 2.3666731e-05 1.9400963e-05)
(0.0036047 2.1625758e-05 1.6899611e-05)
(0.0035176529 1.9956327e-05 1.4788824e-05)
(0.0034382652 1.8569048e-05 1.3008105e-05)
(0.0033656513 1.7397362e-05 1.1504745e-05)
(0.0032990266 1.6392004e-05 1.0233523e-05)
(0.0032376995 1.5516242e-05 9.1565335e-06)
(0.0031810636 1.4743887e-05 8.2421114e-06)
(0.0031285885 1.4056151e-05 7.4635745e-06)
(0.0030798115 1.3438894e-05 6.7985206e-06)
(0.0030343294 1.288115e-05 6.2282227e-06)
(0.0029917905 1.2374495e-05 5.7369833e-06)
(0.0029518882 1.1912419e-05 5.3116671e-06)
(0.0029143553 1.1489689e-05 4.9413539e-06)
(0.0028789586 1.1101927e-05 4.6170007e-06)
(0.0028454946 1.0745379e-05 4.331123e-06)
(0.0028137847 1.0416775e-05 4.0775281e-06)
(0.0027836727 1.0113219e-05 3.8511085e-06)
(0.0027550209 9.8321225e-06 3.6476454e-06)
(0.0027277081 9.5711609e-06 3.4636639e-06)
(0.002701627 9.3282501e-06 3.2963002e-06)
(0.0026766823 9.1015166e-06 3.1431912e-06)
(0.0026527895 8.8892432e-06 3.0023827e-06)
(0.0026298729 8.6898912e-06 2.872256e-06)
(0.0026078648 8.5020889e-06 2.7514701e-06)
(0.002586704 8.3246177e-06 2.6389101e-06)
(0.0025663358 8.1563973e-06 2.5336415e-06)
(0.0025467102 7.9964775e-06 2.4348843e-06)
(0.002527782 7.8440283e-06 2.3419786e-06)
(0.0025095101 7.6983371e-06 2.2543606e-06)
(0.0024918566 7.5588097e-06 2.1715442e-06)
(0.0024747871 7.4248986e-06 2.0931132e-06)
(0.0024582699 7.2960219e-06 2.0187202e-06)
(0.0024422756 7.1714389e-06 1.9480694e-06)
(0.0024267775 7.0509286e-06 1.8808984e-06)
(0.0024117506 6.9343776e-06 1.8169524e-06)
(0.0023971715 6.8214895e-06 1.7560013e-06)
(0.0023830185 6.7119543e-06 1.6978529e-06)
(0.0023692714 6.6055374e-06 1.6423288e-06)
(0.0023559116 6.5020443e-06 1.5892729e-06)
(0.0023429214 6.401308e-06 1.5385378e-06)
(0.0023302844 6.30318e-06 1.4899932e-06)
(0.0023179851 6.2075251e-06 1.4435163e-06)
(0.0023060089 6.1142039e-06 1.3989938e-06)
(0.0022943424 6.0230688e-06 1.3563257e-06)
(0.0022829727 5.9340576e-06 1.3154156e-06)
(0.0022718877 5.8471292e-06 1.2761705e-06)
(0.002261076 5.762204e-06 1.2385025e-06)
(0.0022505267 5.6791988e-06 1.2023315e-06)
(0.0022402296 5.5980426e-06 1.1675829e-06)
(0.0022301752 5.5186726e-06 1.1341877e-06)
(0.0022203542 5.4410303e-06 1.1020805e-06)
(0.002210758 5.3650623e-06 1.0711996e-06)
(0.0022013784 5.2907182e-06 1.0414844e-06)
(0.0021922076 5.2179489e-06 1.0128815e-06)
(0.0021832381 5.1467087e-06 9.8533687e-07)
(0.0021744628 5.0769572e-06 9.588029e-07)
(0.0021658752 5.0086506e-06 9.3323138e-07)
(0.0021574688 4.9417457e-06 9.0857397e-07)
(0.0021492375 4.8762001e-06 8.8479042e-07)
(0.0021411756 4.8119667e-06 8.6183971e-07)
(0.0021332776 4.7489991e-06 8.3967929e-07)
(0.0021255383 4.6872394e-06 8.1827108e-07)
(0.0021179527 4.6266213e-06 7.9757743e-07)
(0.0021105161 4.567067e-06 7.7756098e-07)
(0.0021032242 4.5084821e-06 7.5818397e-07)
(0.0020960727 4.4507554e-06 7.3941108e-07)
(0.0020890577 4.3937747e-06 7.2120332e-07)
(0.0020821756 4.3374548e-06 7.0352162e-07)
(0.002075423 4.2818121e-06 6.8632191e-07)
(0.0020687967 4.2271323e-06 6.695622e-07)
(0.0020622937 4.1743541e-06 6.532039e-07)
(0.002055911 4.1258146e-06 6.3726265e-07)
(0.0020496453 4.0868305e-06 6.2198533e-07)
(0.0020434926 4.0687777e-06 6.0874782e-07)
(0.0020374483 4.094878e-06 6.0452177e-07)
(0.0020315149 4.2094258e-06 6.3987809e-07)
(0.0020256647 4.4797481e-06 7.1688379e-07)
(0.0020144539 4.9057764e-06 2.2695254e-06)
(0.0094902877 9.6726608e-05 0.00022289229)
(0.00917661 0.00016632333 0.00026788105)
(0.0087449456 0.00019969046 0.00025550648)
(0.0082664657 0.00021101604 0.00023762681)
(0.00781215 0.0002109939 0.0002181603)
(0.0073950862 0.0002028236 0.00019646328)
(0.0070087986 0.00018827265 0.00017418493)
(0.006648835 0.00016968865 0.0001528463)
(0.0063142174 0.00014929331 0.00013312182)
(0.0060045996 0.00012875288 0.0001152379)
(0.0057192201 0.00010923292 9.9256792e-05)
(0.0054570682 9.1490071e-05 8.514891e-05)
(0.0052170782 7.59234e-05 7.2816212e-05)
(0.0049981259 6.264333e-05 6.2119134e-05)
(0.0047989841 5.1561153e-05 5.2900048e-05)
(0.0046183234 4.2472279e-05 4.4997976e-05)
(0.0044547458 3.5118725e-05 3.8256897e-05)
(0.0043068267 2.9230544e-05 3.2530442e-05)
(0.0041731526 2.4550834e-05 2.7684339e-05)
(0.0040523509 2.0849111e-05 2.3597363e-05)
(0.0039431142 1.7926911e-05 2.0161346e-05)
(0.0038442168 1.5618599e-05 1.7280682e-05)
(0.0037545253 1.3789364e-05 1.4871531e-05)
(0.0036730042 1.2331758e-05 1.2860863e-05)
(0.0035987172 1.1161539e-05 1.1185213e-05)
(0.0035308246 1.0213367e-05 9.788974e-06)
(0.0034685786 9.4380825e-06 8.6250707e-06)
(0.0034113173 8.7971275e-06 7.6543148e-06)
(0.0033584589 8.2627211e-06 6.8439392e-06)
(0.0033094933 7.8140807e-06 6.1664549e-06)
(0.0032639753 7.4348238e-06 5.5988457e-06)
(0.0032215172 7.1121294e-06 5.121927e-06)
(0.0031817817 6.8360959e-06 4.7197277e-06)
(0.0031444758 6.5990189e-06 4.3789731e-06)
(0.0031093448 6.3947785e-06 4.0886813e-06)
(0.0030761678 6.2184032e-06 3.8397969e-06)
(0.0030447526 6.0657963e-06 3.6248787e-06)
(0.003014932 5.9335276e-06 3.437816e-06)
(0.0029865602 5.8186982e-06 3.2736182e-06)
(0.0029595097 5.7188194e-06 3.1282045e-06)
(0.002933669 5.631751e-06 2.9982609e-06)
(0.0029089401 5.5556261e-06 2.881097e-06)
(0.0028852364 5.4888238e-06 2.7745342e-06)
(0.0028624815 5.4299122e-06 2.6768107e-06)
(0.0028406075 5.377642e-06 2.5865053e-06)
(0.0028195538 5.3309234e-06 2.5024726e-06)
(0.0027992664 5.2888099e-06 2.4237897e-06)
(0.0027796963 5.2504824e-06 2.349711e-06)
(0.0027607998 5.2152432e-06 2.2796383e-06)
(0.002742537 5.1824982e-06 2.2130829e-06)
(0.0027248717 5.1517662e-06 2.1496542e-06)
(0.0027077708 5.1226682e-06 2.0890224e-06)
(0.0026912041 5.094896e-06 2.0309198e-06)
(0.0026751435 5.0680859e-06 1.9751362e-06)
(0.0026595636 5.0410644e-06 1.9215396e-06)
(0.0026444411 5.0142594e-06 1.8699675e-06)
(0.002629754 4.9880176e-06 1.8202516e-06)
(0.0026154815 4.9620719e-06 1.7722785e-06)
(0.0026016045 4.9361395e-06 1.7259611e-06)
(0.0025881054 4.9100842e-06 1.6812154e-06)
(0.0025749674 4.8838322e-06 1.6379658e-06)
(0.002562175 4.8573393e-06 1.5961462e-06)
(0.0025497136 4.8305802e-06 1.5556926e-06)
(0.0025375693 4.8035399e-06 1.5165478e-06)
(0.0025257292 4.7761757e-06 1.478661e-06)
(0.002514181 4.7483827e-06 1.4419866e-06)
(0.0025029134 4.7202739e-06 1.4064829e-06)
(0.0024919154 4.6919145e-06 1.3721023e-06)
(0.0024811765 4.6632903e-06 1.338797e-06)
(0.002470687 4.6344027e-06 1.306529e-06)
(0.0024604377 4.6052687e-06 1.2752603e-06)
(0.0024504197 4.5759089e-06 1.244954e-06)
(0.0024406247 4.5463456e-06 1.2155761e-06)
(0.0024310448 4.5166017e-06 1.1870931e-06)
(0.0024216723 4.4866953e-06 1.1594727e-06)
(0.0024125001 4.4566504e-06 1.1326839e-06)
(0.0024035213 4.4264881e-06 1.1066965e-06)
(0.0023947295 4.396227e-06 1.0814826e-06)
(0.0023861184 4.3658899e-06 1.0570129e-06)
(0.0023776821 4.3354875e-06 1.0332599e-06)
(0.0023694149 4.3050342e-06 1.0101955e-06)
(0.0023613115 4.2745365e-06 9.8779566e-07)
(0.0023533667 4.2439941e-06 9.6603085e-07)
(0.0023455757 4.2133964e-06 9.448743e-07)
(0.0023379338 4.1827192e-06 9.2429926e-07)
(0.0023304365 4.1519265e-06 9.0427669e-07)
(0.0023230798 4.1209542e-06 8.8477309e-07)
(0.0023158598 4.0897252e-06 8.6575188e-07)
(0.0023087726 4.0581568e-06 8.4717327e-07)
(0.002301815 4.0261924e-06 8.2898161e-07)
(0.0022949838 3.9938784e-06 8.1110645e-07)
(0.0022882766 3.9615305e-06 7.9346295e-07)
(0.002281691 3.9300783e-06 7.7594386e-07)
(0.0022752261 3.9016919e-06 7.5847871e-07)
(0.002268882 3.8809412e-06 7.4124675e-07)
(0.0022626608 3.8766481e-06 7.2572712e-07)
(0.0022565686 3.9043048e-06 7.1957932e-07)
(0.0022506189 3.9866563e-06 7.5579945e-07)
(0.0022447715 4.1391009e-06 8.4931715e-07)
(0.002233564 4.2832254e-06 2.4122097e-06)
(0.0094843561 6.6886586e-05 0.00022303624)
(0.0091549219 0.00011904886 0.00026838771)
(0.0087072816 0.00014772496 0.00025588053)
(0.0082191888 0.00015892952 0.00023765677)
(0.0077602858 0.00016026049 0.00021787142)
(0.0073412804 0.00015505102 0.00019586613)
(0.0069552494 0.00014481701 0.00017327438)
(0.0065978366 0.00013121474 0.00015165024)
(0.0062677954 0.00011592881 0.00013169211)
(0.0059642872 0.00010028521 0.0001136244)
(0.0056860598 8.5214433e-05 9.7497523e-05)
(0.0054316726 7.1330409e-05 8.3272196e-05)
(0.0051997008 5.8984298e-05 7.0844883e-05)
(0.0049887459 4.8311754e-05 6.0073374e-05)
(0.0047973943 3.9291584e-05 5.0798892e-05)
(0.0046242055 3.1804355e-05 4.2859903e-05)
(0.0044677269 2.5679085e-05 3.6099807e-05)
(0.0043265179 2.0725785e-05 3.0371291e-05)
(0.0041991724 1.6756344e-05 2.5538702e-05)
(0.004084339 1.3596838e-05 2.1479083e-05)
(0.0039807371 1.1093753e-05 1.8082323e-05)
(0.0038871692 9.1161628e-06 1.525079e-05)
(0.0038025288 7.5553782e-06 1.2898647e-05)
(0.003725804 6.3231338e-06 1.0950986e-05)
(0.0036560786 5.3488191e-06 9.3426776e-06)
(0.0035925304 4.5751821e-06 8.0166134e-06)
(0.0035344253 3.9620996e-06 6.9239485e-06)
(0.0034811131 3.472627e-06 6.025073e-06)
(0.0034320221 3.0815202e-06 5.2862626e-06)
(0.0033866501 2.7702765e-06 4.6792101e-06)
(0.0033445586 2.5236731e-06 4.1805217e-06)
(0.0033053662 2.3295846e-06 3.7707526e-06)
(0.0032687419 2.1784966e-06 3.4337449e-06)
(0.0032343982 2.0629035e-06 3.1561113e-06)
(0.0032020863 1.9768079e-06 2.9267977e-06)
(0.0031715907 1.915316e-06 2.7367038e-06)
(0.0031427248 1.8743799e-06 2.5783561e-06)
(0.0031153267 1.8506046e-06 2.4456284e-06)
(0.0030892563 1.8411254e-06 2.3335223e-06)
(0.0030643915 1.843499e-06 2.2379668e-06)
(0.003040626 1.8556443e-06 2.1556638e-06)
(0.0030178671 1.8757796e-06 2.0839519e-06)
(0.0029960335 1.9023788e-06 2.0206949e-06)
(0.0029750538 1.9341334e-06 1.9641818e-06)
(0.0029548649 1.9699146e-06 1.9130524e-06)
(0.0029354109 2.0087618e-06 1.866227e-06)
(0.0029166424 2.0498581e-06 1.8228528e-06)
(0.0028985148 2.0925089e-06 1.7822575e-06)
(0.0028809886 2.1361376e-06 1.7439147e-06)
(0.0028640277 2.180271e-06 1.7074106e-06)
(0.0028476 2.2245516e-06 1.6724149e-06)
(0.0028316758 2.2687611e-06 1.6386555e-06)
(0.0028162284 2.3128935e-06 1.6058707e-06)
(0.0028012324 2.3570786e-06 1.573822e-06)
(0.0027866658 2.3978712e-06 1.5431882e-06)
(0.0027725089 2.4362348e-06 1.5136865e-06)
(0.0027587418 2.473439e-06 1.4848886e-06)
(0.002745346 2.5095332e-06 1.4567004e-06)
(0.002732305 2.5443495e-06 1.4291163e-06)
(0.0027196032 2.5777727e-06 1.4021115e-06)
(0.0027072261 2.6097241e-06 1.3756645e-06)
(0.0026951602 2.6401655e-06 1.3497566e-06)
(0.0026833928 2.6690875e-06 1.3243753e-06)
(0.0026719116 2.6965045e-06 1.2995091e-06)
(0.0026607054 2.7223723e-06 1.2751523e-06)
(0.0026497635 2.7463543e-06 1.2513125e-06)
(0.002639076 2.7689072e-06 1.2279778e-06)
(0.0026286333 2.7901462e-06 1.2051286e-06)
(0.0026184262 2.8099933e-06 1.1827605e-06)
(0.0026084461 2.8284318e-06 1.1608695e-06)
(0.0025986849 2.8454944e-06 1.1394495e-06)
(0.0025891348 2.8612176e-06 1.1184898e-06)
(0.0025797885 2.8756484e-06 1.0979858e-06)
(0.002570639 2.8888311e-06 1.0779284e-06)
(0.0025616795 2.9008056e-06 1.0583096e-06)
(0.0025529038 2.9116189e-06 1.0391188e-06)
(0.0025443058 2.9213132e-06 1.0203481e-06)
(0.0025358796 2.9299293e-06 1.0019893e-06)
(0.0025276198 2.9375076e-06 9.8403192e-07)
(0.002519521 2.9440803e-06 9.6646595e-07)
(0.0025115783 2.949682e-06 9.492788e-07)
(0.0025037869 2.9543391e-06 9.3246165e-07)
(0.0024961421 2.9580687e-06 9.1599979e-07)
(0.0024886396 2.9608806e-06 8.9988036e-07)
(0.0024812752 2.962771e-06 8.8408535e-07)
(0.002474045 2.9637223e-06 8.6859441e-07)
(0.0024669452 2.963688e-06 8.5338258e-07)
(0.0024599723 2.9626119e-06 8.3841416e-07)
(0.0024531231 2.9604316e-06 8.2364353e-07)
(0.0024463945 2.9570983e-06 8.0900309e-07)
(0.0024397839 2.9526511e-06 7.9439836e-07)
(0.0024332895 2.9473511e-06 7.7969417e-07)
(0.0024269099 2.9419137e-06 7.6470902e-07)
(0.0024206457 2.937923e-06 7.4925936e-07)
(0.0024144993 2.9384192e-06 7.3336467e-07)
(0.0024084767 2.9484956e-06 7.1826424e-07)
(0.0024025877 2.9751253e-06 7.1113352e-07)
(0.002396846 3.0234631e-06 7.4331356e-07)
(0.0023911946 3.0808313e-06 8.3046576e-07)
(0.0023803644 3.0574261e-06 2.2999446e-06)
(0.0094810492 4.4090135e-05 0.00022308885)
(0.0091422796 7.9975482e-05 0.00026874495)
(0.0086839084 0.00010160921 0.00025628771)
(0.0081880903 0.00011101591 0.00023793456)
(0.0077246858 0.00011275118 0.00021798622)
(0.0073029895 0.00010953687 0.00019578738)
(0.0069155191 0.00010266029 0.00017296032)
(0.0065579578 9.3267236e-05 0.0001510852)
(0.006229001 8.2539595e-05 0.00013089045)
(0.005927585 7.1446834e-05 0.00011261412)
(0.0056522063 6.0673361e-05 9.6309239e-05)
(0.0054012005 5.0670808e-05 8.1936268e-05)
(0.0051729477 4.1706609e-05 6.9390832e-05)
(0.004965887 3.3898117e-05 5.8529098e-05)
(0.0047784814 2.7249955e-05 4.9189879e-05)
(0.0046092054 2.1693074e-05 4.1208774e-05)
(0.0044565535 1.7117437e-05 3.4426144e-05)
(0.0043190553 1.3395518e-05 2.8691659e-05)
(0.0041952917 1.0397812e-05 2.3866804e-05)
(0.0040839086 8.0023322e-06 1.9826011e-05)
(0.0039836292 6.0997707e-06 1.645686e-05)
(0.0038932634 4.5956617e-06 1.3659715e-05)
(0.0038117126 3.4106721e-06 1.1347013e-05)
(0.0037379734 2.4799284e-06 9.4422921e-06)
(0.0036711359 1.7515106e-06 7.8790902e-06)
(0.0036103859 1.1749053e-06 6.6010326e-06)
(0.0035549935 7.2234037e-07 5.5561195e-06)
(0.0035043108 3.7342457e-07 4.7060689e-06)
(0.0034577717 1.0569618e-07 4.0163435e-06)
(0.0034148763 -9.9089349e-08 3.4574131e-06)
(0.0033751872 -2.5333632e-07 3.0054958e-06)
(0.0033383243 -3.6640163e-07 2.6409746e-06)
(0.0033039576 -4.4578028e-07 2.3475729e-06)
(0.0032718009 -4.9748485e-07 2.1118259e-06)
(0.0032416065 -5.2634753e-07 1.922642e-06)
(0.0032131599 -5.3631081e-07 1.770915e-06)
(0.0031862758 -5.3064104e-07 1.6492014e-06)
(0.0031607936 -5.1206247e-07 1.5514403e-06)
(0.0031365743 -4.8287152e-07 1.47271e-06)
(0.0031134976 -4.4500696e-07 1.4090338e-06)
(0.0030914586 -4.0011184e-07 1.3572056e-06)
(0.0030703663 -3.4957999e-07 1.314657e-06)
(0.0030501409 -2.9459637e-07 1.2793315e-06)
(0.0030307129 -2.361698e-07 1.2495908e-06)
(0.0030120207 -1.7516632e-07 1.2241393e-06)
(0.0029940105 -1.1232221e-07 1.2019527e-06)
(0.0029766343 -4.8268369e-08 1.1822238e-06)
(0.0029598495 1.644845e-08 1.1643213e-06)
(0.0029436181 8.1355215e-08 1.1477521e-06)
(0.002927906 1.4602463e-07 1.1321254e-06)
(0.0029126825 2.100588e-07 1.1171194e-06)
(0.0028979201 2.7304981e-07 1.1024396e-06)
(0.0028835935 3.3454005e-07 1.0876594e-06)
(0.0028696773 3.9432256e-07 1.0722027e-06)
(0.0028561514 4.5704918e-07 1.059009e-06)
(0.0028429997 5.2059922e-07 1.0472573e-06)
(0.0028302035 5.8225198e-07 1.0356075e-06)
(0.0028177449 6.4163736e-07 1.0238007e-06)
(0.0028056084 6.9901952e-07 1.0118752e-06)
(0.0027937799 7.5456104e-07 9.998686e-07)
(0.0027822461 8.0835031e-07 9.8781027e-07)
(0.0027709946 8.6046845e-07 9.7571878e-07)
(0.0027600137 9.110245e-07 9.6360302e-07)
(0.0027492926 9.6019497e-07 9.5144653e-07)
(0.0027388207 1.0080051e-06 9.3926656e-07)
(0.0027285887 1.052849e-06 9.274644e-07)
(0.0027185878 1.095866e-06 9.1582821e-07)
(0.0027088089 1.1374995e-06 9.0425247e-07)
(0.0026992438 1.1777666e-06 8.9275835e-07)
(0.0026898847 1.2166562e-06 8.8136497e-07)
(0.0026807244 1.2541707e-06 8.7008001e-07)
(0.0026717559 1.2903134e-06 8.5890639e-07)
(0.0026629726 1.3251071e-06 8.47853e-07)
(0.0026543682 1.3585742e-06 8.3692215e-07)
(0.0026459367 1.3907412e-06 8.2612184e-07)
(0.0026376723 1.4216356e-06 8.1545306e-07)
(0.0026295698 1.4512883e-06 8.0491902e-07)
(0.0026216238 1.4797326e-06 7.9452299e-07)
(0.0026138294 1.5069919e-06 7.8426294e-07)
(0.002606182 1.5330932e-06 7.7413996e-07)
(0.0025986769 1.5580636e-06 7.6415135e-07)
(0.0025913099 1.581921e-06 7.5429527e-07)
(0.0025840769 1.6046812e-06 7.4456542e-07)
(0.0025769739 1.626349e-06 7.3495379e-07)