/*--------------------------------*- C++ -*----------------------------------*\
  =========                 |
  \\      /  F ield         | OpenFOAM: The Open Source CFD Toolbox
   \\    /   O peration     | Website:  https://openfoam.org
    \\  /    A nd           | Version:  7
     \\/     M anipulation  |
\*---------------------------------------------------------------------------*/
FoamFile
{
    version     2.0;
    format      ascii;
    class       surfaceScalarField;
    location    "2900/water";
    object      phi;
}
// * * * * * * * * * * * * * * * * * * * * * * * * * * * * * * * * * * * * * //

dimensions      [1 0 -1 0 0 0 0];

internalField   nonuniform List<scalar> 
156660
(
9.9057239e-05
6.0010402e-06
6.0528092e-06
8.6847497e-05
6.0555113e-06
6.1542307e-06
7.5687891e-05
5.5111363e-06
5.6484701e-06
6.5441704e-05
5.0404181e-06
5.2057689e-06
5.6267661e-05
4.4956436e-06
4.6783992e-06
4.8318019e-05
3.8797648e-06
4.0698777e-06
4.1624776e-05
3.2524448e-06
3.4407982e-06
3.6124897e-05
2.660462e-06
2.839417e-06
3.1692235e-05
2.1345127e-06
2.2981489e-06
2.8162841e-05
1.6926975e-06
1.8366964e-06
2.5361437e-05
1.3399934e-06
1.4614113e-06
2.3124664e-05
1.0698477e-06
1.1669256e-06
2.1315127e-05
8.6875418e-07
9.4078229e-07
1.9825714e-05
7.2110066e-07
7.6831274e-07
1.8577278e-05
6.1248245e-07
6.3595308e-07
1.7513255e-05
5.3125217e-07
5.3277148e-07
1.6593744e-05
4.6879722e-07
4.5071348e-07
1.5790433e-05
4.191372e-07
3.8417387e-07
1.5082784e-05
3.7829071e-07
3.2935851e-07
1.4455417e-05
3.4367129e-07
2.8369564e-07
1.3896409e-05
3.1361408e-07
2.4539335e-07
1.339622e-05
2.8704449e-07
2.1314452e-07
1.2947015e-05
2.6326029e-07
1.8594508e-07
1.2542237e-05
2.4179364e-07
1.6298462e-07
1.2176318e-05
2.2232207e-07
1.4359689e-07
1.1844484e-05
2.046148e-07
1.272188e-07
1.1542609e-05
1.8849496e-07
1.1337974e-07
1.1267116e-05
1.7381573e-07
1.0167791e-07
1.1014892e-05
1.6046271e-07
9.1760837e-08
1.0783252e-05
1.4833966e-07
8.3300608e-08
1.0569851e-05
1.3734902e-07
7.6052144e-08
1.0372614e-05
1.2738863e-07
6.9848308e-08
1.0189731e-05
1.1836809e-07
6.4514818e-08
1.001963e-05
1.1020449e-07
5.9896616e-08
9.8609388e-06
1.028192e-07
5.5871629e-08
9.7124594e-06
9.613796e-08
5.2341364e-08
9.5731439e-06
9.0091197e-08
4.9224338e-08
9.4420759e-06
8.4614477e-08
4.6453569e-08
9.3184531e-06
7.9648671e-08
4.3974098e-08
9.2015723e-06
7.5139714e-08
4.1741074e-08
9.0908166e-06
7.1038159e-08
3.9717536e-08
8.9856431e-06
6.7301139e-08
3.7872286e-08
8.8855707e-06
6.3894258e-08
3.6178145e-08
8.7901757e-06
6.0780065e-08
3.4614926e-08
8.6990829e-06
5.7926157e-08
3.3166626e-08
8.611959e-06
5.5303724e-08
3.1820128e-08
8.5285072e-06
5.2887424e-08
3.0564393e-08
8.4484618e-06
5.0655072e-08
2.9390299e-08
8.3715848e-06
4.8587048e-08
2.8290019e-08
8.2976614e-06
4.6666153e-08
2.725719e-08
8.2264975e-06
4.4877486e-08
2.628643e-08
8.1579202e-06
4.3208779e-08
2.5368547e-08
8.0917731e-06
4.1649058e-08
2.4498036e-08
8.0279108e-06
4.0186996e-08
2.3675362e-08
7.9662005e-06
3.8812713e-08
2.289754e-08
7.9065219e-06
3.7518396e-08
2.2160228e-08
7.8487639e-06
3.6297851e-08
2.1460158e-08
7.7928241e-06
3.5145168e-08
2.0794583e-08
7.7386083e-06
3.4054655e-08
2.0161179e-08
7.6860293e-06
3.3021371e-08
1.9557703e-08
7.6350062e-06
3.2040794e-08
1.8982259e-08
7.5854641e-06
3.1109066e-08
1.8433075e-08
7.537333e-06
3.0222593e-08
1.790846e-08
7.4905478e-06
2.9378251e-08
1.7406978e-08
7.4450475e-06
2.8573005e-08
1.6927189e-08
7.4007756e-06
2.7804265e-08
1.6467799e-08
7.3576783e-06
2.7069608e-08
1.6027632e-08
7.3157056e-06
2.636706e-08
1.5605645e-08
7.2748103e-06
2.5694649e-08
1.5200681e-08
7.2349479e-06
2.5050564e-08
1.4811825e-08
7.1960766e-06
2.443309e-08
1.4438211e-08
7.158157e-06
2.3840683e-08
1.40789e-08
7.1211518e-06
2.327193e-08
1.3733278e-08
7.0850258e-06
2.2725499e-08
1.3400513e-08
7.0497456e-06
2.2200214e-08
1.3079949e-08
7.0152798e-06
2.1694915e-08
1.2770894e-08
6.9815984e-06
2.120857e-08
1.2472753e-08
6.9486733e-06
2.0740235e-08
1.2184899e-08
6.9164775e-06
2.0288991e-08
1.1906811e-08
6.8849857e-06
1.9853976e-08
1.1637857e-08
6.8541739e-06
1.9434403e-08
1.1377456e-08
6.8240193e-06
1.902945e-08
1.1125104e-08
6.7945006e-06
1.8638495e-08
1.088024e-08
6.7655975e-06
1.826077e-08
1.0642321e-08
6.7372912e-06
1.7895556e-08
1.041076e-08
6.709564e-06
1.75421e-08
1.0185076e-08
6.6823995e-06
1.7199614e-08
9.9648524e-09
6.6557824e-06
1.6867299e-08
9.7497962e-09
6.6296983e-06
1.6544137e-08
9.5399865e-09
6.604133e-06
1.6229269e-08
9.335984e-09
6.5790714e-06
1.5921999e-08
9.1396624e-09
6.554494e-06
1.5622312e-08
8.95507e-09
6.5303708e-06
1.5332563e-08
8.7906498e-09
6.5066467e-06
1.5060441e-08
8.6636139e-09
6.4832094e-06
1.4827813e-08
8.6094988e-09
6.4598103e-06
1.4693054e-08
8.7060214e-09
6.4358387e-06
1.4826414e-08
9.1451153e-09
6.4096302e-06
1.5741757e-08
1.0466726e-08
6.3782854e-06
1.8026571e-08
1.3318222e-08
3.23002e-08
2.7923539e-08
0.00010646494
4.1872385e-06
6.4599816e-06
0.0001002019
5.695418e-06
6.6231353e-06
9.3659588e-05
5.7790389e-06
6.2744098e-06
8.7011589e-05
5.6514782e-06
6.0369387e-06
8.0422927e-05
5.366912e-06
5.7173941e-06
7.4094022e-05
4.9022832e-06
5.3063862e-06
6.8167026e-05
4.3278135e-06
4.8516273e-06
6.2722565e-05
3.7178909e-06
4.387032e-06
5.7799049e-05
3.1243144e-06
3.9337144e-06
5.3403345e-05
2.5820689e-06
3.5063329e-06
4.9517402e-05
2.1121062e-06
3.1138299e-06
4.6105482e-05
1.7220197e-06
2.7597474e-06
4.3121558e-05
1.4089355e-06
2.4437429e-06
4.0515558e-05
1.1637552e-06
2.163346e-06
3.8237948e-05
9.7485852e-07
1.9152336e-06
3.6242683e-05
8.3055976e-07
1.6959573e-06
3.4488759e-05
7.2043699e-07
1.5022849e-06
3.2940716e-05
6.3586298e-07
1.3313172e-06
3.1568463e-05
5.7005005e-07
1.1804931e-06
3.0346733e-05
5.1784898e-07
1.0475522e-06
2.9254398e-05
4.7545955e-07
9.3049033e-07
2.8273782e-05
4.4013956e-07
8.2752022e-07
2.7390054e-05
4.099489e-07
7.3704009e-07
2.6590699e-05
3.8353953e-07
6.5760856e-07
2.5865102e-05
3.5998886e-07
5.8793072e-07
2.5204197e-05
3.3867631e-07
5.268426e-07
2.4600205e-05
3.1918358e-07
4.7330348e-07
2.4046429e-05
3.0120191e-07
4.2639017e-07
2.3537073e-05
2.8455209e-07
3.8526715e-07
2.3067119e-05
2.6911104e-07
3.4918243e-07
2.2632208e-05
2.5478167e-07
3.1747787e-07
2.2228528e-05
2.4147382e-07
2.8959531e-07
2.1852744e-05
2.2911072e-07
2.6504124e-07
2.1501947e-05
2.1762893e-07
2.4337255e-07
2.1173591e-05
2.0696949e-07
2.2420572e-07
2.0865444e-05
1.9707566e-07
2.0720868e-07
2.0575549e-05
1.8789252e-07
1.9209397e-07
2.0302183e-05
1.7936722e-07
1.7861343e-07
2.0043829e-05
1.7144913e-07
1.6655322e-07
1.979915e-05
1.6408982e-07
1.5572944e-07
1.956696e-05
1.5724382e-07
1.4598402e-07
1.934621e-05
1.5086895e-07
1.3718217e-07
1.9135969e-05
1.4492653e-07
1.2920881e-07
1.8935407e-05
1.3937907e-07
1.2196309e-07
1.8743783e-05
1.3419231e-07
1.1535764e-07
1.8560435e-05
1.2933509e-07
1.0931728e-07
1.8384766e-05
1.2477906e-07
1.0377714e-07
1.8216241e-05
1.2049851e-07
9.8681305e-08
1.8054377e-05
1.1647015e-07
9.398131e-08
1.7898734e-05
1.1267293e-07
8.9635437e-08
1.7748917e-05
1.0908825e-07
8.5607028e-08
1.7604563e-05
1.0570006e-07
8.1862414e-08
1.7465345e-05
1.024934e-07
7.8373244e-08
1.7330962e-05
9.9452994e-08
7.5117003e-08
1.7201138e-05
9.6564405e-08
7.2072717e-08
1.7075619e-05
9.3816653e-08
6.9221144e-08
1.695417e-05
9.1201108e-08
6.6545104e-08
1.6836577e-05
8.8709117e-08
6.4029569e-08
1.6722638e-05
8.6331978e-08
6.166104e-08
1.661217e-05
8.4061737e-08
5.9427686e-08
1.6505001e-05
8.1891541e-08
5.7318828e-08
1.640097e-05
7.981492e-08
5.5324831e-08
1.6299929e-05
7.7826165e-08
5.3437105e-08
1.620174e-05
7.5919842e-08
5.1647893e-08
1.6106272e-05
7.4090993e-08
4.9950113e-08
1.6013404e-05
7.2334983e-08
4.8337347e-08
1.5923022e-05
7.0647713e-08
4.6803869e-08
1.5835019e-05
6.9025697e-08
4.5344291e-08
1.5749294e-05
6.7465498e-08
4.3953715e-08
1.5665753e-05
6.5963787e-08
4.2627702e-08
1.5584307e-05
6.4517339e-08
4.1362164e-08
1.5504871e-05
6.312341e-08
4.0153358e-08
1.5427365e-05
6.1779312e-08
3.8997774e-08
1.5351716e-05
6.0482525e-08
3.7892251e-08
1.5277852e-05
5.9230782e-08
3.6833845e-08
1.5205705e-05
5.8021981e-08
3.5819714e-08
1.5135212e-05
5.6854009e-08
3.4847354e-08
1.5066313e-05
5.5724972e-08
3.3914324e-08
1.499895e-05
5.4633113e-08
3.301842e-08
1.493307e-05
5.3576736e-08
3.2157459e-08
1.4868621e-05
5.2554186e-08
3.1329421e-08
1.4805554e-05
5.1563958e-08
3.0532444e-08
1.4743823e-05
5.0604473e-08
2.9764662e-08
1.4683386e-05
4.9674298e-08
2.9024367e-08
1.4624199e-05
4.8771792e-08
2.8309856e-08
1.4566226e-05
4.7895459e-08
2.761957e-08
1.4509431e-05
4.7043482e-08
2.6951972e-08
1.4453778e-05
4.621409e-08
2.6305759e-08
1.4399237e-05
4.5405388e-08
2.5679894e-08
1.4345777e-05
4.4615714e-08
2.5073737e-08
1.4293367e-05
4.3844287e-08
2.4487722e-08
1.4241972e-05
4.3092858e-08
2.3923739e-08
1.4191548e-05
4.2369937e-08
2.3387154e-08
1.4142019e-05
4.1699335e-08
2.2889652e-08
1.4093249e-05
4.1141645e-08
2.2456616e-08
1.4044951e-05
4.0844638e-08
2.2146548e-08
1.3996485e-05
4.1169179e-08
2.2123065e-08
1.3946229e-05
4.3012293e-08
2.2985392e-08
1.389015e-05
4.854027e-08
2.5565783e-08
6.3281519e-08
5.0000839e-08
0.00010603565
2.7876425e-06
6.4750379e-06
0.00010074799
4.4145413e-06
6.5685292e-06
9.5493515e-05
4.8594028e-06
6.1741158e-06
9.0256432e-05
4.930369e-06
5.9581921e-06
8.5101366e-05
4.8311767e-06
5.6908012e-06
8.0102875e-05
4.5561761e-06
5.3445981e-06
7.5322251e-05
4.1469521e-06
4.9614853e-06
7.0803266e-05
3.6678926e-06
4.5689837e-06
6.6576264e-05
3.1701903e-06
4.1811255e-06
6.2660725e-05
2.6900109e-06
3.8075975e-06
5.9065443e-05
2.2519318e-06
3.4554566e-06
5.5788936e-05
1.8697304e-06
3.1287958e-06
5.2820978e-05
1.5477473e-06
2.8291458e-06
5.014479e-05
1.2836302e-06
2.5563139e-06
4.7739304e-05
1.07123e-06
2.3091141e-06
4.5581183e-05
9.0281501e-07
2.0858661e-06
4.3646423e-05
7.7048775e-07
1.884709e-06
4.1911533e-05
6.6697371e-07
1.7037792e-06
4.0354306e-05
5.8598199e-07
1.541295e-06
3.8954268e-05
5.2230221e-07
1.3955849e-06
3.769288e-05
4.7175603e-07
1.265091e-06
3.6553576e-05
4.310798e-07
1.1483634e-06
3.552169e-05
3.9778207e-07
1.0440533e-06
3.4584322e-05
3.6999883e-07
9.5090833e-07
3.3730181e-05
3.4635984e-07
8.6777018e-07
3.2949411e-05
3.258776e-07
7.9356874e-07
3.2233419e-05
3.0784046e-07
7.2733484e-07
3.1574711e-05
2.9172983e-07
6.6818105e-07
3.0966769e-05
2.7719263e-07
6.1530128e-07
3.0403928e-05
2.63981e-07
5.6797021e-07
2.9881258e-05
2.5190849e-07
5.2554317e-07
2.9394455e-05
2.4082714e-07
4.8745002e-07
2.8939761e-05
2.3062159e-07
4.5318329e-07
2.8513895e-05
2.2120149e-07
4.2229387e-07
2.8113985e-05
2.1249194e-07
3.9438674e-07
2.7737518e-05
2.0442798e-07
3.6911491e-07
2.7382285e-05
1.9695195e-07
3.4617385e-07
2.7046344e-05
1.9001178e-07
3.252968e-07
2.6727982e-05
1.8355995e-07
3.0625045e-07
2.6425689e-05
1.7755273e-07
2.8883085e-07
2.6138123e-05
1.7195004e-07
2.7285986e-07
2.5864094e-05
1.6671514e-07
2.5818184e-07
2.5602546e-05
1.6181452e-07
2.446609e-07
2.535253e-05
1.5721708e-07
2.3217765e-07
2.5113201e-05
1.5289443e-07
2.2062728e-07
2.4883797e-05
1.4882097e-07
2.0991774e-07
2.4663634e-05
1.4497367e-07
1.9996814e-07
2.4452094e-05
1.4133184e-07
1.9070705e-07
2.4248615e-05
1.3787695e-07
1.8207151e-07
2.405269e-05
1.3459268e-07
1.7400572e-07
2.3863854e-05
1.3146459e-07
1.6645989e-07
2.3681684e-05
1.2848058e-07
1.5938926e-07
2.3505794e-05
1.2562918e-07
1.5275415e-07
2.3335829e-05
1.2289868e-07
1.4651969e-07
2.3171462e-05
1.2027635e-07
1.406546e-07
2.3012394e-05
1.1775474e-07
1.351302e-07
2.2858345e-05
1.1532968e-07
1.2992043e-07
2.2709057e-05
1.1299539e-07
1.2500174e-07
2.2564291e-05
1.1074518e-07
1.2035291e-07
2.2423824e-05
1.0857349e-07
1.1595459e-07
2.2287451e-05
1.064755e-07
1.1178921e-07
2.2154978e-05
1.0444701e-07
1.0784078e-07
2.2026226e-05
1.024842e-07
1.0409459e-07
2.1901025e-05
1.0058354e-07
1.0053716e-07
2.1779218e-05
9.8741555e-08
9.7156163e-08
2.1660658e-05
9.6954865e-08
9.3940265e-08
2.1545205e-05
9.5221258e-08
9.0879062e-08
2.1432729e-05
9.3538788e-08
8.796279e-08
2.1323107e-05
9.1905328e-08
8.5182622e-08
2.1216222e-05
9.0318515e-08
8.2530164e-08
2.1111965e-05
8.8776417e-08
7.9997883e-08
2.1010233e-05
8.727713e-08
7.7578642e-08
2.0910927e-05
8.5818958e-08
7.5265856e-08
2.0813956e-05
8.4400299e-08
7.3053439e-08
2.0719232e-05
8.3019675e-08
7.093566e-08
2.0626671e-05
8.1675631e-08
6.8907221e-08
2.0536195e-05
8.0366804e-08
6.6963131e-08
2.0447729e-05
7.9091947e-08
6.5098753e-08
2.0361203e-05
7.7849777e-08
6.3309771e-08
2.0276548e-05
7.663923e-08
6.1592073e-08
2.0193702e-05
7.5459006e-08
5.9941754e-08
2.0112602e-05
7.4307958e-08
5.8355216e-08
2.0033193e-05
7.3184915e-08
5.6829056e-08
1.9955419e-05
7.2088592e-08
5.535997e-08
1.9879228e-05
7.1017639e-08
5.3944827e-08
1.9804572e-05
6.9970403e-08
5.258073e-08
1.9731406e-05
6.8945241e-08
5.1264813e-08
1.9659685e-05
6.7940117e-08
4.9994395e-08
1.9589371e-05
6.6953008e-08
4.8767062e-08
1.9520423e-05
6.5982381e-08
4.758055e-08
1.9452807e-05
6.5028019e-08
4.6433096e-08
1.9386482e-05
6.4094125e-08
4.5323755e-08
1.9321404e-05
6.3194695e-08
4.4253086e-08
1.9257511e-05
6.2366368e-08
4.3225234e-08
1.9194705e-05
6.169518e-08
4.2253144e-08
1.9132798e-05
6.1374053e-08
4.1377407e-08
1.9071394e-05
6.1822426e-08
4.075066e-08
1.9009424e-05
6.3924705e-08
4.1057624e-08
1.8944661e-05
6.9304666e-08
4.3998834e-08
7.9170961e-08
7.4661557e-08
0.0001054937
1.9169871e-06
6.4880407e-06
0.00010005365
3.2729596e-06
6.5816335e-06
9.4926077e-05
3.8288995e-06
6.1580777e-06
8.9946373e-05
3.9838109e-06
5.9262629e-06
8.5163276e-05
3.9595077e-06
5.6547657e-06
8.0619137e-05
3.7899368e-06
5.3103784e-06
7.6329462e-05
3.5015547e-06
4.9350725e-06
7.230016e-05
3.1412013e-06
4.5559928e-06
6.8534206e-05
2.7514802e-06
4.1846641e-06
6.5032983e-05
2.3633493e-06
3.8278852e-06
6.1795789e-05
1.9984143e-06
3.490711e-06
5.8818843e-05
1.670376e-06
3.176301e-06
5.6094718e-05
1.3858295e-06
2.886043e-06
5.3612488e-05
1.1457945e-06
2.6200649e-06
5.1358373e-05
9.4764116e-07
2.3777043e-06
4.9316593e-05
7.8676781e-07
2.1578271e-06
4.7470246e-05
6.5779542e-07
1.9590391e-06
4.5802069e-05
5.553254e-07
1.7798252e-06
4.4295042e-05
4.7437113e-07
1.6186378e-06
4.293283e-05
4.1056667e-07
1.4739479e-06
4.1700078e-05
3.6023234e-07
1.3442759e-06
4.0582591e-05
3.2035742e-07
1.2282094e-06
3.956742e-05
2.8853735e-07
1.1244154e-06
3.8642881e-05
2.6289067e-07
1.0316468e-06
3.7798527e-05
2.4196988e-07
9.4874402e-07
3.7025076e-05
2.2467705e-07
8.7465173e-07
3.6314324e-05
2.1018901e-07
8.0840412e-07
3.5659057e-05
1.9788608e-07
7.4911043e-07
3.5052961e-05
1.8731581e-07
6.959728e-07
3.4490519e-05
1.7814869e-07
6.4827381e-07
3.3966922e-05
1.7013167e-07
6.0537441e-07
3.3477973e-05
1.6306727e-07
5.6670867e-07
3.3020016e-05
1.5680295e-07
5.3177542e-07
3.2589865e-05
1.5122054e-07
5.0013243e-07
3.218474e-05
1.462256e-07
4.7139137e-07
3.1802215e-05
1.4174074e-07
4.4521231e-07
3.1440168e-05
1.3770095e-07
4.212981e-07
3.1096739e-05
1.3405097e-07
3.9938924e-07
3.0770297e-05
1.3074295e-07
3.7925954e-07
3.0459402e-05
1.2773515e-07
3.6071194e-07
3.0162787e-05
1.2499092e-07
3.4357482e-07
2.9879325e-05
1.2247785e-07
3.2769851e-07
2.960802e-05
1.2016729e-07
3.1295273e-07
2.934798e-05
1.180338e-07
2.9922351e-07
2.9098408e-05
1.1605464e-07
2.8641139e-07
2.885859e-05
1.1420985e-07
2.7442905e-07
2.8627882e-05
1.1248193e-07
2.6319998e-07
2.8405701e-05
1.1085561e-07
2.5265684e-07
2.819152e-05
1.0931758e-07
2.4274024e-07
2.7984859e-05
1.0785648e-07
2.3339755e-07
2.7785279e-05
1.0646277e-07
2.2458209e-07
2.7592378e-05
1.051287e-07
2.1625214e-07
2.740579e-05
1.0384734e-07
2.0837035e-07
2.7225174e-05
1.0261115e-07
2.0090359e-07
2.705022e-05
1.0140747e-07
1.9382257e-07
2.6880641e-05
1.0023381e-07
1.8710042e-07
2.6716166e-05
9.9092331e-08
1.8071227e-07
2.6556546e-05
9.7979969e-08
1.7463559e-07
2.6401548e-05
9.689254e-08
1.6885013e-07
2.6250957e-05
9.5827118e-08
1.633374e-07
2.610457e-05
9.4781702e-08
1.5808045e-07
2.5962199e-05
9.3754742e-08
1.5306364e-07
2.5823666e-05
9.2744885e-08
1.482726e-07
2.5688804e-05
9.1750997e-08
1.4369411e-07
2.5557458e-05
9.0771786e-08
1.3931599e-07
2.5429481e-05
8.9805184e-08
1.3512697e-07
2.5304734e-05
8.8851449e-08
1.3111647e-07
2.5183087e-05
8.7911211e-08
1.2727466e-07
2.5064416e-05
8.6983936e-08
1.2359242e-07
2.4948604e-05
8.6068922e-08
1.200612e-07
2.4835542e-05
8.5165775e-08
1.1667301e-07
2.4725124e-05
8.427433e-08
1.1342046e-07
2.4617252e-05
8.3394238e-08
1.1029657e-07
2.4511832e-05
8.2525446e-08
1.0729477e-07
2.4408775e-05
8.1667729e-08
1.0440898e-07
2.4307997e-05
8.0820957e-08
1.0163344e-07
2.4209416e-05
7.9985014e-08
9.8962654e-08
2.4112956e-05
7.9159729e-08
9.6391549e-08
2.4018546e-05
7.8345018e-08
9.3915328e-08
2.3926115e-05
7.7540683e-08
9.1529296e-08
2.3835598e-05
7.6746569e-08
8.9229276e-08
2.3746933e-05
7.5962331e-08
8.7011051e-08
2.366006e-05
7.5187631e-08
8.487075e-08
2.3574922e-05
7.4421967e-08
8.2804552e-08
2.3491466e-05
7.3664613e-08
8.0808903e-08
2.3409641e-05
7.2914607e-08
7.8880373e-08
2.33294e-05
7.2170689e-08
7.70155e-08
2.3250698e-05
7.1431289e-08
7.5211001e-08
2.3173492e-05
7.0694879e-08
7.3463629e-08
2.3097745e-05
6.9960225e-08
7.1770074e-08
2.3023418e-05
6.922799e-08
7.0127033e-08
2.2950477e-05
6.8503513e-08
6.8531195e-08
2.2878889e-05
6.7802873e-08
6.6979712e-08
2.2808619e-05
6.7165086e-08
6.5471591e-08
2.2739625e-05
6.6675252e-08
6.4013344e-08
2.267185e-05
6.6507086e-08
6.2642317e-08
2.2605149e-05
6.6990731e-08
6.1532371e-08
2.2538888e-05
6.8686028e-08
6.1499885e-08
2.2471121e-05
7.2226989e-08
6.4845118e-08
7.6722848e-08
9.8461327e-08
0.0001051979
1.3340884e-06
6.4961221e-06
9.9496561e-05
2.3731022e-06
6.6011947e-06
9.4262459e-05
2.9019223e-06
6.1610799e-06
8.9251186e-05
3.0856641e-06
5.9094196e-06
8.4493497e-05
3.0947347e-06
5.6224614e-06
8.0033635e-05
2.9846656e-06
5.2651341e-06
7.5876907e-05
2.7790155e-06
4.8792667e-06
7.2014635e-05
2.5106844e-06
4.4927895e-06
6.8436293e-05
2.2128729e-06
4.1169489e-06
6.5131387e-05
1.9107259e-06
3.7575291e-06
6.208941e-05
1.621732e-06
3.4186596e-06
5.9299432e-05
1.3573878e-06
3.1029661e-06
5.6749589e-05
1.1240344e-06
2.8116386e-06
5.4426788e-05
9.2377944e-07
2.5448158e-06
5.2316754e-05
7.5572796e-07
2.3019465e-06
5.0404313e-05
6.1717852e-07
2.0820302e-06
4.8673788e-05
5.0454348e-07
1.8837772e-06
4.7109414e-05
4.1397182e-07
1.7057274e-06
4.5695713e-05
3.4173649e-07
1.5463363e-06
4.4417792e-05
2.8445145e-07
1.4040359e-06
4.3261575e-05
2.3917112e-07
1.277278e-06
4.2213952e-05
2.0341502e-07
1.1645652e-06
4.1262871e-05
1.7514741e-07
1.0644718e-06
4.039737e-05
1.5273232e-07
9.7565897e-07
3.9607583e-05
1.3487529e-07
8.9688143e-07
3.8884688e-05
1.2055565e-07
8.270164e-07
3.8220848e-05
1.0901091e-07
7.6501856e-07
3.7609155e-05
9.963384e-08
7.0994487e-07
3.7043542e-05
9.1977459e-08
6.6095088e-07
3.6518702e-05
8.570581e-08
6.1728287e-07
3.6030009e-05
8.0552388e-08
5.7827309e-07
3.5573433e-05
7.6308305e-08
5.4333413e-07
3.5145475e-05
7.2811264e-08
5.1195029e-07
3.4743091e-05
6.9934126e-08
4.8367024e-07
3.4363641e-05
6.7575453e-08
4.5810065e-07
3.4004828e-05
6.5652895e-08
4.3489994e-07
3.3664659e-05
6.4098616e-08
4.1377212e-07
3.3341393e-05
6.2855908e-08
3.9446092e-07
3.3033513e-05
6.1877002e-08
3.7674527e-07
3.2739693e-05
6.1121115e-08
3.6043424e-07
3.2458768e-05
6.0553075e-08
3.4536326e-07
3.2189712e-05
6.0142642e-08
3.3139053e-07
3.1931622e-05
5.9863627e-08
3.1839375e-07
3.1683696e-05
5.9693109e-08
3.0626733e-07
3.1445219e-05
5.9611197e-08
2.9492011e-07
3.1215555e-05
5.9600576e-08
2.8427316e-07
3.0994132e-05
5.9646512e-08
2.7425807e-07
3.0780436e-05
5.9736152e-08
2.648154e-07
3.0574002e-05
5.9858649e-08
2.5589332e-07
3.0374407e-05
6.0004937e-08
2.474466e-07
3.0181267e-05
6.0167642e-08
2.3943546e-07
2.9994229e-05
6.0341215e-08
2.3182485e-07
2.9812971e-05
6.0521778e-08
2.2458373e-07
2.9637193e-05
6.0704481e-08
2.1768456e-07
2.9466629e-05
6.0867277e-08
2.1110457e-07
2.9301024e-05
6.1016974e-08
2.0482179e-07
2.914014e-05
6.1160859e-08
1.988157e-07
2.8983756e-05
6.1294937e-08
1.9306839e-07
2.8831669e-05
6.1415469e-08
1.8756391e-07
2.8683688e-05
6.1520937e-08
1.8228764e-07
2.8539633e-05
6.1610521e-08
1.7722634e-07
2.8399336e-05
6.1683797e-08
1.7236784e-07
2.8262639e-05
6.1740495e-08
1.677009e-07
2.8129394e-05
6.1780686e-08
1.6321522e-07
2.7999461e-05
6.1803843e-08
1.5890122e-07
2.7872709e-05
6.1807333e-08
1.5475037e-07
2.7749012e-05
6.1793559e-08
1.5075443e-07
2.7628253e-05
6.1764783e-08
1.4690556e-07
2.7510319e-05
6.172097e-08
1.4319661e-07
2.7395105e-05
6.166211e-08
1.3962087e-07
2.728251e-05
6.1588627e-08
1.3617201e-07
2.7172439e-05
6.1501034e-08
1.3284421e-07
2.7064802e-05
6.1399944e-08
1.2963194e-07
2.6959511e-05
6.1285903e-08
1.2652992e-07
2.6856486e-05
6.1159507e-08
1.2353325e-07
2.6755649e-05
6.1021316e-08
1.2063731e-07
2.6656924e-05
6.087183e-08
1.1783764e-07
2.6560242e-05
6.0711703e-08
1.1513011e-07
2.6465535e-05
6.0541383e-08
1.1251078e-07
2.6372738e-05
6.0361335e-08
1.0997579e-07
2.6281791e-05
6.0171933e-08
1.0752159e-07
2.6192636e-05
5.9973527e-08
1.0514468e-07
2.6105215e-05
5.976632e-08
1.0284181e-07
2.6019477e-05
5.9550236e-08
1.0060974e-07
2.5935371e-05
5.9325137e-08
9.8445279e-08
2.585285e-05
5.9090475e-08
9.6345383e-08
2.5771868e-05
5.8845468e-08
9.4306927e-08
2.5692384e-05
5.858898e-08
9.2326736e-08
2.5614357e-05
5.831981e-08
9.0401434e-08
2.5537753e-05
5.803706e-08
8.852733e-08
2.5462539e-05
5.774163e-08
8.6700206e-08
2.5388689e-05
5.7438407e-08
8.491517e-08
2.5316184e-05
5.714142e-08
8.3166635e-08
2.5245017e-05
5.6882607e-08
8.1449639e-08
2.51752e-05
5.6726053e-08
7.9765808e-08
2.510677e-05
5.678791e-08
7.8149201e-08
2.5039729e-05
5.7251606e-08
7.6780972e-08
2.4973573e-05
5.8330913e-08
7.6510221e-08
2.4906079e-05
5.9989481e-08
7.973219e-08
6.0714993e-08
1.1287821e-07
0.00010503672
9.0789371e-07
6.5005614e-06
9.9140653e-05
1.6524913e-06
6.6166801e-06
9.3788329e-05
2.0825241e-06
6.1717217e-06
8.8708526e-05
2.2549373e-06
5.91053e-06
8.3909682e-05
2.278404e-06
5.6151748e-06
7.9437109e-05
2.2074821e-06
5.2497564e-06
7.5296201e-05
2.0645348e-06
4.8553893e-06
7.1474034e-05
1.8722543e-06
4.4605969e-06
6.7955013e-05
1.6547667e-06
4.0771269e-06
6.4723621e-05
1.4313505e-06
3.7107669e-06
6.1764423e-05
1.2154297e-06
3.3655007e-06
5.9062056e-05
1.015864e-06
3.0438911e-06
5.6601108e-05
8.3782743e-07
2.7471548e-06
5.4365944e-05
6.8344645e-07
2.475497e-06
5.2340648e-05
5.5258523e-07
2.2284383e-06
5.0509125e-05
4.4366548e-07
2.0050361e-06
4.8855299e-05
3.5433455e-07
1.8040352e-06
4.7363353e-05
2.8193589e-07
1.6239821e-06
4.6017963e-05
2.2381344e-07
1.4633127e-06
4.4804502e-05
1.7749378e-07
1.3204181e-06
4.3709199e-05
1.407809e-07
1.1936935e-06
4.2719248e-05
1.1179157e-07
1.081575e-06
4.1822875e-05
8.8954541e-08
9.8256582e-07
4.1009364e-05
7.0987967e-08
8.9525472e-07
4.0269054e-05
5.6861827e-08
8.1832381e-07
3.9593306e-05
4.5719131e-08
7.5058477e-07
3.8974405e-05
3.6977872e-08
6.9093438e-07
3.8405585e-05
3.0067373e-08
6.3838632e-07
3.7880869e-05
2.4650857e-08
5.9204242e-07
3.7395029e-05
2.0439992e-08
5.5110606e-07
3.6943514e-05
1.7190256e-08
5.1487712e-07
3.6522366e-05
1.4716749e-08
4.8273956e-07
3.6128148e-05
1.2874775e-08
4.5415388e-07
3.5757883e-05
1.1549895e-08
4.2864942e-07
3.5408991e-05
1.0650772e-08
4.0581707e-07
3.5079238e-05
1.0103649e-08
3.8530227e-07
3.4766689e-05
9.8482587e-09
3.6679876e-07
3.4469668e-05
9.8351331e-09
3.5004233e-07
3.4186716e-05
1.0022901e-08
3.348055e-07
3.3916567e-05
1.0377008e-08
3.2089287e-07
3.3658116e-05
1.086806e-08
3.0813657e-07
3.3410395e-05
1.1470995e-08
2.9639283e-07
3.3172556e-05
1.2164236e-08
2.8553827e-07
3.2943852e-05
1.292928e-08
2.754672e-07
3.2723625e-05
1.3750141e-08
2.6608895e-07
3.2511286e-05
1.4613072e-08
2.573257e-07
3.2306316e-05
1.5506197e-08
2.4911064e-07
3.2108246e-05
1.6419599e-08
2.4138621e-07
3.1916658e-05
1.7344609e-08
2.3410268e-07
3.1731171e-05
1.8274284e-08
2.2721712e-07
3.1551444e-05
1.9203122e-08
2.2069213e-07
3.1377162e-05
2.0127714e-08
2.1449507e-07
3.1208038e-05
2.1048652e-08
2.0859682e-07
3.10438e-05
2.1972785e-08
2.0297056e-07
3.0884232e-05
2.2827829e-08
1.9760735e-07
3.0729103e-05
2.366295e-08
1.9248227e-07
3.05782e-05
2.4490023e-08
1.8757382e-07
3.0431331e-05
2.5296281e-08
1.8286762e-07
3.0288318e-05
2.6077981e-08
1.7835075e-07
3.0148994e-05
2.6834317e-08
1.7401106e-07
3.0013202e-05
2.7564693e-08
1.6983755e-07
2.9880797e-05
2.8268947e-08
1.6582024e-07
2.975164e-05
2.894744e-08
1.6195013e-07
2.96256e-05
2.960078e-08
1.5821896e-07
2.9502557e-05
3.0228569e-08
1.5461921e-07
2.9382396e-05
3.0823589e-08
1.5114465e-07
2.9265007e-05
3.1393136e-08
1.4778876e-07
2.9150287e-05
3.1939585e-08
1.4454536e-07
2.9038137e-05
3.2461885e-08
1.41409e-07
2.8928465e-05
3.2960044e-08
1.3837461e-07
2.8821181e-05
3.3434719e-08
1.3543753e-07
2.8716203e-05
3.3886332e-08
1.325933e-07
2.8613449e-05
3.4315516e-08
1.2983787e-07
2.8512845e-05
3.4722864e-08
1.2716737e-07
2.8414317e-05
3.5108969e-08
1.2457814e-07
2.8317797e-05
3.5474459e-08
1.2206681e-07
2.8223219e-05
3.581988e-08
1.1963009e-07
2.813052e-05
3.6145899e-08
1.1726491e-07
2.803964e-05
3.6453074e-08
1.1496839e-07
2.7950522e-05
3.6741882e-08
1.1273771e-07
2.7863111e-05
3.7012813e-08
1.1057029e-07
2.7777354e-05
3.7266247e-08
1.0846342e-07
2.7693204e-05
3.7502456e-08
1.0641475e-07
2.761061e-05
3.7721562e-08
1.0442174e-07
2.752953e-05
3.7923511e-08
1.0248199e-07
2.7449919e-05
3.8107946e-08
1.0059306e-07
2.7371738e-05
3.8274242e-08
9.8752296e-08
2.7294949e-05
3.8421514e-08
9.6956922e-08
2.7219516e-05
3.8548696e-08
9.520361e-08
2.714541e-05
3.8655101e-08
9.3488614e-08
2.7072603e-05
3.8741138e-08
9.1806945e-08
2.7001079e-05
3.8810259e-08
9.015232e-08
2.6930832e-05
3.8872143e-08
8.8516574e-08
2.6861876e-05
3.8947395e-08
8.6890524e-08
2.679426e-05
3.907355e-08
8.526918e-08
2.6728065e-05
3.9306971e-08
8.3675932e-08
2.6663337e-05
3.970834e-08
8.2271151e-08
2.659956e-05
4.0271987e-08
8.1836182e-08
2.6534295e-05
4.0698044e-08
8.4555763e-08
3.9620858e-08
1.1507131e-07
0.00010494757
5.681108e-07
6.5033077e-06
9.8925416e-05
1.0462983e-06
6.6283517e-06
9.3480449e-05
1.3439844e-06
6.1835065e-06
8.8341777e-05
1.4751324e-06
5.9184763e-06
8.3502084e-05
1.4993911e-06
5.6187065e-06
7.9004057e-05
1.4572411e-06
5.2482679e-06
7.4853978e-05
1.3667383e-06
4.8478757e-06
7.1037378e-05
1.2423973e-06
4.4464569e-06
6.7536063e-05
1.0997693e-06
4.0563127e-06
6.4331998e-05
9.5192359e-07
3.683491e-06
6.1407318e-05
8.0805756e-07
3.3320524e-06
5.8744339e-05
6.74222e-07
3.0046209e-06
5.6325632e-05
5.5404394e-07
2.7024907e-06
5.4133973e-05
4.4916744e-07
2.4259383e-06
5.2152298e-05
3.5972399e-07
2.1745359e-06
5.0363747e-05
2.848451e-07
1.9473718e-06
4.875178e-05
2.2310004e-07
1.7432015e-06
4.7300339e-05
1.7281167e-07
1.5605647e-06
4.5994012e-05
1.3226572e-07
1.3978748e-06
4.4818177e-05
9.9840038e-08
1.2534891e-06
4.3759121e-05
7.4075634e-08
1.1257614e-06
4.2804123e-05
5.3707626e-08
1.0130814e-06
4.1941503e-05
3.7671201e-08
9.1390374e-07
4.1160627e-05
2.5096459e-08
8.2676733e-07
4.0451891e-05
1.5294173e-08
7.503039e-07
3.980679e-05
7.5281795e-09
6.8329176e-07
3.9217543e-05
1.6727531e-09
6.2455204e-07
3.8677513e-05
-3.0330902e-09
5.7313082e-07
3.8180739e-05
-6.6486545e-09
5.2807353e-07
3.7722004e-05
-9.359509e-09
4.8853448e-07
3.7296777e-05
-1.1371808e-08
4.5378925e-07
3.6901112e-05
-1.2818271e-08
4.2319912e-07
3.6531588e-05
-1.3805299e-08
3.9620481e-07
3.6185236e-05
-1.4417467e-08
3.7231874e-07
3.5859491e-05
-1.4721872e-08
3.5111778e-07
3.5552132e-05
-1.4772618e-08
3.3223579e-07
3.5261237e-05
-1.4613904e-08
3.1535728e-07
3.4985143e-05
-1.4282165e-08
3.0021089e-07
3.472241e-05
-1.3807681e-08
2.8656375e-07
3.4471787e-05
-1.3215899e-08
2.7421631e-07
3.4232185e-05
-1.2528192e-08
2.629977e-07
3.4002657e-05
-1.1762791e-08
2.5276174e-07
3.3782373e-05
-1.0935236e-08
2.4338337e-07
3.3570606e-05
-1.0058791e-08
2.3475557e-07
3.3366714e-05
-9.144746e-09
2.2678673e-07
3.3170131e-05
-8.2028189e-09
2.1939831e-07
3.2980356e-05
-7.241211e-09
2.1252303e-07
3.279694e-05
-6.2668785e-09
2.0610283e-07
3.2619482e-05
-5.2855447e-09
2.0008786e-07
3.2447623e-05
-4.3018757e-09
1.9443479e-07
3.228104e-05
-3.3190879e-09
1.8910585e-07
3.2119438e-05
-2.3383495e-09
1.8406737e-07
3.1962554e-05
-1.3530538e-09
1.7928647e-07
3.1810075e-05
-2.7635739e-10
1.7472765e-07
3.1661878e-05
5.858157e-10
1.7043906e-07
3.1517732e-05
1.4356279e-09
1.6637295e-07
3.1377429e-05
2.3038332e-09
1.6248957e-07
3.1240792e-05
3.1586104e-09
1.5877483e-07
3.1107656e-05
3.9969894e-09
1.5521718e-07
3.0977867e-05
4.8171839e-09
1.5180548e-07
3.0851284e-05
5.6179738e-09
1.4852968e-07
3.0727773e-05
6.3990177e-09
1.4538077e-07
3.0607209e-05
7.1608985e-09
1.4235054e-07
3.0489473e-05
7.9059387e-09
1.3943121e-07
3.037445e-05
8.6357439e-09
1.3661578e-07
3.0262049e-05
9.3206583e-09
1.3390397e-07
3.0152163e-05
9.9938169e-09
1.3128568e-07
3.0044697e-05
1.0650372e-08
1.2875513e-07
2.9939564e-05
1.1286735e-08
1.2630828e-07
2.983668e-05
1.1903179e-08
1.2394087e-07
2.9735965e-05
1.2500125e-08
1.2164886e-07
2.9637345e-05
1.3077869e-08
1.1942845e-07
2.9540748e-05
1.3636711e-08
1.1727618e-07
2.9446105e-05
1.4177028e-08
1.1518883e-07
2.9353352e-05
1.469915e-08
1.1316338e-07
2.9262425e-05
1.5203544e-08
1.1119703e-07
2.9173268e-05
1.5690516e-08
1.092871e-07
2.9085822e-05
1.6160385e-08
1.0743106e-07
2.9000035e-05
1.6613578e-08
1.0562665e-07
2.8915855e-05
1.7050393e-08
1.0387153e-07
2.8833233e-05
1.7471101e-08
1.0216361e-07
2.8752123e-05
1.7875936e-08
1.0050079e-07
2.8672479e-05
1.8265103e-08
9.8881124e-08
2.8594259e-05
1.8638531e-08
9.7302498e-08
2.8517424e-05
1.8996222e-08
9.5762935e-08
2.8441934e-05
1.9337789e-08
9.4260329e-08
2.8367753e-05
1.9662759e-08
9.2792311e-08
2.8294848e-05
1.9970459e-08
9.135627e-08
2.8223187e-05
2.0260033e-08
8.9948865e-08
2.8152746e-05
2.0530705e-08
8.8565913e-08
2.8083503e-05
2.0782621e-08
8.7201813e-08
2.8015447e-05
2.101753e-08
8.5848699e-08
2.7948582e-05
2.1240741e-08
8.4495825e-08
2.7882937e-05
2.1462715e-08
8.3129477e-08
2.7818574e-05
2.1699978e-08
8.1736523e-08
2.7755588e-05
2.1969273e-08
8.0324363e-08
2.7694014e-05
2.2266167e-08
7.9016073e-08
2.7633299e-05
2.2506286e-08
7.8480667e-08
2.7571004e-05
2.2393414e-08
8.0599471e-08
2.0993097e-08
1.0779945e-07
0.00010489986
2.7443377e-07
6.5049155e-06
9.8802772e-05
5.0716635e-07
6.6362236e-06
9.329591e-05
6.5854975e-07
6.1922972e-06
8.8116302e-05
7.2902545e-07
5.9257148e-06
8.3248198e-05