/*--------------------------------*- C++ -*----------------------------------*\
  =========                 |
  \\      /  F ield         | OpenFOAM: The Open Source CFD Toolbox
   \\    /   O peration     | Website:  https://openfoam.org
    \\  /    A nd           | Version:  7
     \\/     M anipulation  |
\*---------------------------------------------------------------------------*/
FoamFile
{
    version     2.0;
    format      ascii;
    class       volVectorField;
    location    "2900/water";
    object      U;
}
// * * * * * * * * * * * * * * * * * * * * * * * * * * * * * * * * * * * * * //

dimensions      [0 1 -1 0 0 0 0];

internalField   nonuniform List<vector> 
54000
(
(0.0090020934 0.00020305973 0.00020444027)
(0.0083186447 0.00023622738 0.00023904411)
(0.0073695241 0.00021363852 0.00021763527)
(0.0063566114 0.00018488016 0.00018965819)
(0.0054486673 0.00015530836 0.00016048633)
(0.0046741594 0.00012529952 0.00013052937)
(0.0040193038 9.7052611e-05 0.00010203017)
(0.0034740067 7.2579e-05 7.7073287e-05)
(0.0030302461 5.2876127e-05 5.6738328e-05)
(0.0026757323 3.8068151e-05 4.1216511e-05)
(0.0023947254 2.7637704e-05 3.003714e-05)
(0.0021713898 2.0689034e-05 2.2336508e-05)
(0.0019919695 1.623616e-05 1.7152704e-05)
(0.0018455015 1.3416237e-05 1.3643173e-05)
(0.0017237326 1.1582489e-05 1.1179123e-05)
(0.0016206928 1.0304891e-05 9.345581e-06)
(0.0015321593 9.3257898e-06 7.8957157e-06)
(0.0014551546 8.5052967e-06 6.6953106e-06)
(0.0013875459 7.7746336e-06 5.6760584e-06)
(0.0013277612 7.1034284e-06 4.8034863e-06)
(0.001274601 6.4798497e-06 4.0581571e-06)
(0.0012271179 5.8999455e-06 3.4261574e-06)
(0.0011845424 5.3625297e-06 2.8950706e-06)
(0.001146235 4.8670207e-06 2.45263e-06)
(0.0011116558 4.4125993e-06 2.0869763e-06)
(0.0010803434 3.9980129e-06 1.7867448e-06)
(0.0010519002 3.6214604e-06 1.5416127e-06)
(0.0010259819 3.2805933e-06 1.3421847e-06)
(0.001002289 2.9733953e-06 1.179731e-06)
(0.00098056199 2.6979491e-06 1.0463202e-06)
(0.00096057571 2.4519203e-06 9.3658972e-07)
(0.00094213242 2.2325666e-06 8.4693341e-07)
(0.00092505792 2.0373871e-06 7.731655e-07)
(0.00090920047 1.8640901e-06 7.1184187e-07)
(0.00089442818 1.7104622e-06 6.6046643e-07)
(0.0008806259 1.5743826e-06 6.1707384e-07)
(0.00086769295 1.4538621e-06 5.800531e-07)
(0.00085554128 1.3470714e-06 5.4811469e-07)
(0.00084409387 1.2523499e-06 5.2023822e-07)
(0.00083328322 1.1681986e-06 4.956278e-07)
(0.00082305015 1.0932617e-06 4.7365257e-07)
(0.00081334267 1.0262297e-06 4.537824e-07)
(0.00080411486 9.6585917e-07 4.355444e-07)
(0.00079532615 9.1130974e-07 4.1865024e-07)
(0.0007869407 8.6191658e-07 4.0290626e-07)
(0.00077892675 8.1708293e-07 3.8816817e-07)
(0.00077125603 7.7627614e-07 3.7432046e-07)
(0.0007639033 7.3902634e-07 3.6127674e-07)
(0.00075684597 7.0491479e-07 3.4896407e-07)
(0.00075006373 6.7357442e-07 3.3733095e-07)
(0.00074353821 6.4469445e-07 3.2633728e-07)
(0.00073725294 6.1802551e-07 3.1581902e-07)
(0.00073119313 5.9334809e-07 3.0574363e-07)
(0.00072534528 5.7041965e-07 2.9621129e-07)
(0.00071969687 5.4902587e-07 2.8716674e-07)
(0.00071423652 5.2901448e-07 2.7854303e-07)
(0.00070895385 5.1027331e-07 2.7031156e-07)
(0.00070383928 4.9268764e-07 2.62448e-07)
(0.00069888397 4.7614446e-07 2.5493297e-07)
(0.00069407976 4.6055035e-07 2.4774384e-07)
(0.00068941911 4.458203e-07 2.4086402e-07)
(0.00068489502 4.3188489e-07 2.3427642e-07)
(0.00068050098 4.1867875e-07 2.2796316e-07)
(0.00067623091 4.0614696e-07 2.2191143e-07)
(0.00067207915 3.942348e-07 2.1610539e-07)
(0.00066804042 3.8289809e-07 2.1053147e-07)
(0.00066410976 3.7209497e-07 2.0517753e-07)
(0.00066028251 3.6179428e-07 2.0003312e-07)
(0.00065655429 3.5196248e-07 1.95083e-07)
(0.00065292099 3.4256937e-07 1.9031793e-07)
(0.00064937872 3.3358617e-07 1.8572929e-07)
(0.00064592384 3.2498803e-07 1.8130462e-07)
(0.00064255288 3.1675186e-07 1.7704018e-07)
(0.00063926261 3.0885612e-07 1.7292476e-07)
(0.00063604992 3.0128282e-07 1.6895131e-07)
(0.00063291192 2.9401308e-07 1.6511104e-07)
(0.00062984582 2.8703055e-07 1.613975e-07)
(0.00062684903 2.8032132e-07 1.5780252e-07)
(0.00062391907 2.7387118e-07 1.5432078e-07)
(0.00062105358 2.6766645e-07 1.5094294e-07)
(0.00061825035 2.616955e-07 1.4766108e-07)
(0.00061550727 2.5594498e-07 1.4446928e-07)
(0.00061282235 2.5040699e-07 1.4135951e-07)
(0.00061019373 2.4506905e-07 1.3832479e-07)
(0.00060761964 2.3991953e-07 1.3535614e-07)
(0.00060509845 2.3494606e-07 1.3244825e-07)
(0.00060262862 2.3013465e-07 1.295975e-07)
(0.00060020873 2.254706e-07 1.2680351e-07)
(0.00059783744 2.2093198e-07 1.2407536e-07)
(0.00059551348 2.1649876e-07 1.2143318e-07)
(0.00059323555 2.1214991e-07 1.1892855e-07)
(0.00059100214 2.0787144e-07 1.1666166e-07)
(0.00058881114 2.0369096e-07 1.1482965e-07)
(0.00058665898 1.9973067e-07 1.138205e-07)
(0.00058453869 1.9638444e-07 1.1441017e-07)
(0.00058243501 1.94872e-07 1.1837339e-07)
(0.00058031396 1.9977499e-07 1.3094307e-07)
(0.0005781161 2.2258497e-07 1.6397555e-07)
(0.00057566369 1.9706936e-07 1.508061e-07)
(0.00056906201 7.8896368e-07 7.5322563e-07)
(0.0095316863 0.0003313754 0.00022336697)
(0.0092716504 0.00041105942 0.00027052342)
(0.0087756651 0.00040317187 0.00026060062)
(0.0081527518 0.00038218754 0.00024252081)
(0.0075302151 0.00035309574 0.00022101124)
(0.0069425889 0.00031541063 0.00019648834)
(0.006391209 0.00027309198 0.00017102969)
(0.0058791845 0.00023030694 0.00014652546)
(0.0054120202 0.00019001855 0.00012410997)
(0.0049926512 0.00015423459 0.00010436627)
(0.004620592 0.00012408347 8.7479017e-05)
(0.0042931332 9.9809402e-05 7.3327496e-05)
(0.0040063965 8.0956424e-05 6.1601504e-05)
(0.0037559538 6.6672211e-05 5.1918795e-05)
(0.0035372541 5.5985801e-05 4.3907444e-05)
(0.003345947 4.7992056e-05 3.7246645e-05)
(0.0031780884 4.194171e-05 3.1677529e-05)
(0.0030302311 3.7262447e-05 2.6997921e-05)
(0.0028994324 3.3540996e-05 2.3051139e-05)
(0.0027832152 3.0490245e-05 1.9714594e-05)
(0.0026795075 2.7915735e-05 1.6890544e-05)
(0.0025865783 2.568784e-05 1.4499382e-05)
(0.002502978 2.3720891e-05 1.2475016e-05)
(0.0024274871 2.1958429e-05 1.0761725e-05)
(0.0023590736 2.0362992e-05 9.3122321e-06)
(0.0022968589 1.8909454e-05 8.0861282e-06)
(0.0022400906 1.7580768e-05 7.0489622e-06)
(0.0021881216 1.6364898e-05 6.1714974e-06)
(0.0021403932 1.5251964e-05 5.4283137e-06)
(0.0020964214 1.423385e-05 4.7973514e-06)
(0.0020557868 1.330304e-05 4.2604822e-06)
(0.0020181236 1.2451986e-05 3.8027035e-06)
(0.0019831119 1.1673908e-05 3.4109605e-06)
(0.0019504718 1.0962756e-05 3.0744198e-06)
(0.0019199589 1.0312853e-05 2.7842601e-06)
(0.0018913593 9.7188331e-06 2.5331806e-06)
(0.0018644851 9.1756449e-06 2.3150738e-06)
(0.0018391716 8.6785724e-06 2.1248311e-06)
(0.0018152735 8.2232438e-06 1.9581834e-06)
(0.0017926629 7.8056206e-06 1.8115681e-06)
(0.0017712268 7.4219982e-06 1.6820111e-06)
(0.001750865 7.0689375e-06 1.56707e-06)
(0.0017314886 6.7432692e-06 1.4647424e-06)
(0.0017130186 6.4422719e-06 1.3732759e-06)
(0.0016953848 6.1635567e-06 1.2911596e-06)
(0.0016785241 5.9049777e-06 1.2171198e-06)
(0.00166238 5.6646085e-06 1.1500835e-06)
(0.0016469019 5.440725e-06 1.0891496e-06)
(0.001632044 5.231778e-06 1.0335531e-06)
(0.0016177648 5.036384e-06 9.8265481e-07)
(0.0016040271 4.8533239e-06 9.3589513e-07)
(0.0015907965 4.6815631e-06 8.9273743e-07)
(0.0015780424 4.5201579e-06 8.5278581e-07)
(0.0015657364 4.3681542e-06 8.1577053e-07)
(0.0015538526 4.2246836e-06 7.8138473e-07)
(0.0015423672 4.0890602e-06 7.4934488e-07)
(0.0015312583 3.9607284e-06 7.194125e-07)
(0.0015205058 3.8391525e-06 6.9138816e-07)
(0.0015100909 3.7238127e-06 6.6509377e-07)
(0.0014999963 3.6142429e-06 6.4037922e-07)
(0.0014902061 3.5100297e-06 6.1710897e-07)
(0.0014807053 3.4107984e-06 5.9516025e-07)
(0.00147148 3.3162115e-06 5.7442707e-07)
(0.0014625175 3.2259592e-06 5.5481435e-07)
(0.0014538055 3.1397538e-06 5.3623531e-07)
(0.0014453328 3.0573357e-06 5.1861222e-07)
(0.0014370889 2.9784705e-06 5.0187863e-07)
(0.0014290637 2.9029576e-06 4.8596893e-07)
(0.001421248 2.8306017e-06 4.7082426e-07)
(0.001413633 2.7612185e-06 4.5639296e-07)
(0.0014062103 2.6946328e-06 4.4262822e-07)
(0.0013989723 2.6306906e-06 4.2948736e-07)
(0.0013919116 2.569246e-06 4.1692952e-07)
(0.0013850211 2.5101623e-06 4.0491965e-07)
(0.0013782945 2.4533171e-06 3.9342484e-07)
(0.0013717253 2.3985946e-06 3.8241098e-07)
(0.0013653078 2.3458841e-06 3.7185116e-07)
(0.0013590364 2.2950854e-06 3.61717e-07)
(0.0013529058 2.2461044e-06 3.5198421e-07)
(0.001346911 2.1988518e-06 3.426267e-07)
(0.0013410472 2.1532426e-06 3.336207e-07)
(0.0013353099 2.1091961e-06 3.2494551e-07)
(0.001329695 2.0666365e-06 3.1657842e-07)
(0.0013241983 2.0254884e-06 3.0849995e-07)
(0.001318816 1.9856726e-06 3.0068981e-07)
(0.0013135446 1.9471136e-06 2.9313061e-07)
(0.0013083808 1.9097256e-06 2.8580509e-07)
(0.0013033213 1.8734243e-06 2.7870194e-07)
(0.0012983632 1.8381149e-06 2.7181645e-07)
(0.0012935038 1.8037146e-06 2.651531e-07)
(0.0012887402 1.7701718e-06 2.5874342e-07)
(0.0012840698 1.7375326e-06 2.526499e-07)
(0.0012794889 1.7061227e-06 2.4701424e-07)
(0.0012749925 1.6769097e-06 2.4211407e-07)
(0.001270572 1.652468e-06 2.3851816e-07)
(0.0012662098 1.6393321e-06 2.3765969e-07)
(0.0012618709 1.6545766e-06 2.4458313e-07)
(0.0012574959 1.7463715e-06 2.7712453e-07)
(0.0012529717 2.0376719e-06 2.6526384e-07)
(0.0012433358 2.9514806e-06 1.3525326e-06)
(0.0095221617 0.00021179965 0.00022180582)
(0.009269783 0.00029872516 0.00026628967)
(0.0088657772 0.00031669844 0.00025526743)
(0.0083755729 0.000317438 0.00023864265)
(0.0078888426 0.00030841043 0.00021987851)
(0.0074276349 0.00028848207 0.00019850458)
(0.006988258 0.00026048391 0.00017617916)
(0.0065698164 0.00022855168 0.00015444521)
(0.0061756011 0.00019596771 0.00013413534)
(0.0058087146 0.00016504408 0.00011567593)
(0.0054706295 0.00013728621 9.9270838e-05)
(0.0051615551 0.00011345265 8.4947831e-05)
(0.0048808654 9.3684508e-05 7.2600737e-05)
(0.0046272998 7.7712989e-05 6.2044901e-05)
(0.0043991196 6.5057025e-05 5.3064542e-05)
(0.0041942886 5.5163886e-05 4.5443629e-05)
(0.0040106431 4.7493346e-05 3.8982753e-05)
(0.0038460219 4.1561377e-05 3.350638e-05)
(0.0036983537 3.6958194e-05 2.8864075e-05)
(0.0035657105 3.3351175e-05 2.4928487e-05)
(0.0034463343 3.0479502e-05 2.1592135e-05)
(0.003338646 2.8144767e-05 1.8764099e-05)
(0.003241243 2.6200154e-05 1.6367139e-05)
(0.0031528887 2.4539752e-05 1.433537e-05)
(0.0030724986 2.3088866e-05 1.2612489e-05)
(0.0029991252 2.1796112e-05 1.1150135e-05)
(0.0029319421 2.0626904e-05 9.9064813e-06)
(0.0028702292 1.9558163e-05 8.8458159e-06)
(0.0028133589 1.8574038e-05 7.9385378e-06)
(0.0027607855 1.7663623e-05 7.1598236e-06)
(0.0027120345 1.6818834e-05 6.4890364e-06)
(0.0026666927 1.6033066e-05 5.909021e-06)
(0.0026243991 1.5301095e-05 5.4052727e-06)
(0.0025848382 1.4618818e-05 4.9656526e-06)
(0.0025477347 1.3982712e-05 4.5801143e-06)
(0.0025128472 1.3389543e-05 4.2403271e-06)
(0.002479964 1.2836281e-05 3.9393561e-06)
(0.0024488994 1.2320059e-05 3.6714257e-06)
(0.0024194896 1.1838146e-05 3.4317266e-06)
(0.00239159 1.1387939e-05 3.2162512e-06)
(0.0023650729 1.0966986e-05 3.0216608e-06)
(0.0023398248 1.0572999e-05 2.8451737e-06)
(0.0023157449 1.0203874e-05 2.6844739e-06)
(0.0022927433 9.8575806e-06 2.5375947e-06)
(0.0022707398 9.5322162e-06 2.4028644e-06)
(0.002249662 9.2260289e-06 2.2788667e-06)
(0.0022294453 8.9374188e-06 2.1644007e-06)
(0.0022100312 8.6649291e-06 2.058438e-06)
(0.0021913666 8.4072378e-06 1.9601008e-06)
(0.0021734038 8.1631554e-06 1.8686322e-06)
(0.0021560989 7.9316218e-06 1.7833672e-06)
(0.0021394122 7.7117248e-06 1.7037085e-06)
(0.0021233074 7.5026025e-06 1.6291524e-06)
(0.0021077512 7.3033792e-06 1.5592833e-06)
(0.0020927129 7.1131874e-06 1.4937194e-06)
(0.0020781645 6.9314162e-06 1.4321041e-06)
(0.0020640799 6.757605e-06 1.3741143e-06)
(0.0020504351 6.5912619e-06 1.3194619e-06)
(0.0020372075 6.43188e-06 1.2678955e-06)
(0.0020243766 6.2790064e-06 1.219187e-06)
(0.0020119231 6.1322418e-06 1.1731315e-06)
(0.001999829 5.9912206e-06 1.1295427e-06)
(0.0019880776 5.8556117e-06 1.0882502e-06)
(0.0019766531 5.7251047e-06 1.0490956e-06)
(0.0019655411 5.5994075e-06 1.0119378e-06)
(0.0019547276 5.4782438e-06 9.7664591e-07)
(0.0019441999 5.3613893e-06 9.4310142e-07)
(0.0019339458 5.2486469e-06 9.1118914e-07)
(0.0019239539 5.1398179e-06 8.8080828e-07)
(0.0019142135 5.0347026e-06 8.5185972e-07)
(0.0019047144 4.9331187e-06 8.2425946e-07)
(0.001895447 4.8349001e-06 7.9792465e-07)
(0.0018864023 4.7398904e-06 7.7278013e-07)
(0.0018775718 4.6479422e-06 7.4875669e-07)
(0.0018689473 4.5589212e-06 7.2578835e-07)
(0.0018605211 4.4726993e-06 7.0381471e-07)
(0.0018522861 4.3891528e-06 6.827779e-07)
(0.0018442353 4.3081682e-06 6.626252e-07)
(0.0018363621 4.2296367e-06 6.4330796e-07)
(0.0018286604 4.1534585e-06 6.2477795e-07)
(0.0018211241 4.0795292e-06 6.0698894e-07)
(0.0018137478 4.0077539e-06 5.8990014e-07)
(0.0018065261 3.9380356e-06 5.7347259e-07)
(0.001799454 3.870279e-06 5.5766706e-07)
(0.0017925266 3.8043815e-06 5.4244649e-07)
(0.0017857396 3.7402357e-06 5.2777872e-07)
(0.0017790885 3.6777258e-06 5.1362991e-07)
(0.0017725695 3.6167255e-06 4.9996997e-07)
(0.0017661787 3.5571062e-06 4.8677553e-07)
(0.0017599128 3.4987616e-06 4.7402528e-07)
(0.0017537682 3.4416547e-06 4.6170957e-07)
(0.0017477416 3.3859641e-06 4.4983601e-07)
(0.0017418294 3.3323837e-06 4.3844294e-07)
(0.0017360272 3.2827934e-06 4.2764669e-07)
(0.0017303281 3.2417785e-06 4.1776851e-07)
(0.0017247202 3.2200403e-06 4.0999106e-07)
(0.001719183 3.2421556e-06 4.0984948e-07)
(0.001713691 3.3643429e-06 4.4114462e-07)
(0.0017081999 3.7072192e-06 4.7353367e-07)
(0.0016974804 4.4611198e-06 1.8634995e-06)
(0.0095012861 0.00013951169 0.00022248511)
(0.0092133349 0.00022408324 0.00026709763)
(0.0088018509 0.0002570094 0.00025529581)
(0.0083306071 0.00026690691 0.0002382081)
(0.0078754299 0.00026502159 0.00021939837)
(0.0074527063 0.0002529565 0.00019823245)
(0.0070564396 0.00023295893 0.00017634609)
(0.0066827538 0.00020836345 0.0001552305)
(0.006331873 0.00018203354 0.00013558338)
(0.0060047052 0.00015603739 0.00011769036)
(0.0057015056 0.00013180401 0.00010166909)
(0.0054220192 0.00011020725 8.7524314e-05)
(0.0051656909 9.16319e-05 7.5171985e-05)
(0.0049316845 7.6091186e-05 6.4472618e-05)
(0.0047188814 6.3363141e-05 5.5261149e-05)
(0.0045259349 5.3104939e-05 4.736682e-05)
(0.0043513547 4.4932754e-05 4.0624899e-05)
(0.0041935865 3.8471359e-05 3.4883032e-05)
(0.0040510752 3.3381245e-05 3.0003995e-05)
(0.0039223115 2.9370508e-05 2.5866181e-05)
(0.0038058643 2.6197261e-05 2.2362867e-05)
(0.0037004012 2.3666729e-05 1.9400962e-05)
(0.0036047 2.1625757e-05 1.689961e-05)
(0.0035176529 1.9956327e-05 1.4788825e-05)
(0.0034382652 1.8569048e-05 1.3008105e-05)
(0.0033656513 1.7397362e-05 1.1504746e-05)
(0.0032990266 1.6392003e-05 1.0233524e-05)
(0.0032376995 1.5516242e-05 9.1565349e-06)
(0.0031810636 1.4743886e-05 8.2421111e-06)
(0.0031285885 1.4056151e-05 7.4635753e-06)
(0.0030798115 1.3438894e-05 6.7985204e-06)
(0.0030343294 1.2881151e-05 6.2282224e-06)
(0.0029917905 1.2374495e-05 5.736983e-06)
(0.0029518882 1.1912419e-05 5.3116667e-06)
(0.0029143553 1.148969e-05 4.9413538e-06)
(0.0028789586 1.1101929e-05 4.6170004e-06)
(0.0028454946 1.074538e-05 4.3311224e-06)
(0.0028137847 1.0416776e-05 4.0775286e-06)
(0.0027836727 1.0113219e-05 3.8511082e-06)
(0.0027550209 9.8321207e-06 3.6476454e-06)
(0.0027277081 9.57116e-06 3.4636655e-06)
(0.002701627 9.3282493e-06 3.296301e-06)
(0.0026766823 9.1015137e-06 3.1431921e-06)
(0.0026527895 8.8892429e-06 3.0023819e-06)
(0.0026298729 8.6898925e-06 2.8722564e-06)
(0.0026078648 8.5020901e-06 2.7514709e-06)
(0.002586704 8.324618e-06 2.6389098e-06)
(0.0025663358 8.1563975e-06 2.5336417e-06)
(0.0025467102 7.9964765e-06 2.434885e-06)
(0.002527782 7.8440273e-06 2.3419788e-06)
(0.0025095101 7.6983359e-06 2.2543605e-06)
(0.0024918566 7.5588098e-06 2.1715442e-06)
(0.0024747871 7.4248977e-06 2.0931122e-06)
(0.0024582699 7.2960205e-06 2.0187195e-06)
(0.0024422756 7.1714391e-06 1.9480689e-06)
(0.0024267775 7.0509277e-06 1.8808988e-06)
(0.0024117506 6.9343759e-06 1.8169533e-06)
(0.0023971715 6.8214894e-06 1.7560024e-06)
(0.0023830185 6.7119571e-06 1.697852e-06)
(0.0023692714 6.6055402e-06 1.6423279e-06)
(0.0023559116 6.5020456e-06 1.5892722e-06)
(0.0023429214 6.4013092e-06 1.5385389e-06)
(0.0023302844 6.3031811e-06 1.4899936e-06)
(0.0023179851 6.2075252e-06 1.4435156e-06)
(0.0023060089 6.1142046e-06 1.3989938e-06)
(0.0022943424 6.0230674e-06 1.3563267e-06)
(0.0022829727 5.9340572e-06 1.3154164e-06)
(0.0022718877 5.8471286e-06 1.2761702e-06)
(0.002261076 5.7622049e-06 1.2385019e-06)
(0.0022505267 5.679199e-06 1.202331e-06)
(0.0022402296 5.5980423e-06 1.1675825e-06)
(0.0022301752 5.518673e-06 1.1341881e-06)
(0.0022203542 5.4410292e-06 1.102081e-06)
(0.002210758 5.3650609e-06 1.0711987e-06)
(0.0022013784 5.2907165e-06 1.0414841e-06)
(0.0021922076 5.2179477e-06 1.0128823e-06)
(0.0021832381 5.1467089e-06 9.8533814e-07)
(0.0021744628 5.0769567e-06 9.5880332e-07)
(0.0021658752 5.0086484e-06 9.3323177e-07)
(0.0021574688 4.9417444e-06 9.0857396e-07)
(0.0021492375 4.8761996e-06 8.8479131e-07)
(0.0021411756 4.8119668e-06 8.6183966e-07)
(0.0021332776 4.7489984e-06 8.3968e-07)
(0.0021255383 4.6872384e-06 8.182711e-07)
(0.0021179527 4.6266216e-06 7.9757658e-07)
(0.0021105161 4.567066e-06 7.7756095e-07)
(0.0021032242 4.5084808e-06 7.5818431e-07)
(0.0020960727 4.4507539e-06 7.3941049e-07)
(0.0020890577 4.3937744e-06 7.2120279e-07)
(0.0020821756 4.3374557e-06 7.0352077e-07)
(0.002075423 4.2818108e-06 6.8632224e-07)
(0.0020687967 4.2271335e-06 6.6956176e-07)
(0.0020622937 4.1743541e-06 6.5320343e-07)
(0.002055911 4.1258161e-06 6.3726231e-07)
(0.0020496453 4.0868296e-06 6.219845e-07)
(0.0020434926 4.0687768e-06 6.0874749e-07)
(0.0020374483 4.0948774e-06 6.0452191e-07)
(0.0020315149 4.2094246e-06 6.3987768e-07)
(0.0020256647 4.4797484e-06 7.1688452e-07)
(0.0020144539 4.9057777e-06 2.2695258e-06)
(0.0094902877 9.6726608e-05 0.00022289229)
(0.00917661 0.00016632333 0.00026788105)
(0.0087449456 0.00019969046 0.00025550648)
(0.0082664657 0.00021101604 0.00023762681)
(0.00781215 0.0002109939 0.0002181603)
(0.0073950862 0.0002028236 0.00019646328)
(0.0070087986 0.00018827265 0.00017418493)
(0.006648835 0.00016968865 0.0001528463)
(0.0063142174 0.00014929331 0.00013312182)
(0.0060045996 0.00012875288 0.0001152379)
(0.0057192201 0.00010923292 9.9256791e-05)
(0.0054570682 9.1490072e-05 8.514891e-05)
(0.0052170782 7.59234e-05 7.2816212e-05)
(0.0049981259 6.264333e-05 6.2119133e-05)
(0.0047989841 5.1561151e-05 5.2900046e-05)
(0.0046183234 4.2472277e-05 4.4997975e-05)
(0.0044547458 3.5118723e-05 3.8256897e-05)
(0.0043068267 2.9230544e-05 3.2530442e-05)
(0.0041731526 2.4550833e-05 2.7684339e-05)
(0.0040523509 2.084911e-05 2.3597361e-05)
(0.0039431142 1.7926911e-05 2.0161344e-05)
(0.0038442168 1.5618598e-05 1.7280681e-05)
(0.0037545253 1.3789364e-05 1.487153e-05)
(0.0036730042 1.2331759e-05 1.2860862e-05)
(0.0035987172 1.1161539e-05 1.1185211e-05)
(0.0035308246 1.0213366e-05 9.7889742e-06)
(0.0034685786 9.4380827e-06 8.6250717e-06)
(0.0034113173 8.7971287e-06 7.654315e-06)
(0.0033584589 8.2627205e-06 6.8439396e-06)
(0.0033094933 7.8140806e-06 6.1664546e-06)
(0.0032639753 7.4348228e-06 5.5988452e-06)
(0.0032215172 7.1121303e-06 5.121927e-06)
(0.0031817817 6.8360956e-06 4.7197274e-06)
(0.0031444758 6.5990203e-06 4.3789735e-06)
(0.0031093448 6.3947798e-06 4.0886807e-06)
(0.0030761678 6.2184054e-06 3.8397967e-06)
(0.0030447526 6.065797e-06 3.6248795e-06)
(0.003014932 5.9335278e-06 3.4378168e-06)
(0.0029865602 5.8186964e-06 3.2736179e-06)
(0.0029595097 5.7188194e-06 3.1282048e-06)
(0.002933669 5.63175e-06 2.9982608e-06)
(0.0029089401 5.5556255e-06 2.8810963e-06)
(0.0028852364 5.4888219e-06 2.7745336e-06)
(0.0028624815 5.429912e-06 2.67681e-06)
(0.0028406075 5.3776428e-06 2.586505e-06)
(0.0028195538 5.3309225e-06 2.5024725e-06)
(0.0027992664 5.2888083e-06 2.423789e-06)
(0.0027796963 5.2504818e-06 2.3497112e-06)
(0.0027607998 5.2152415e-06 2.2796371e-06)
(0.002742537 5.1824977e-06 2.2130834e-06)
(0.0027248717 5.1517657e-06 2.149654e-06)
(0.0027077708 5.1226668e-06 2.0890221e-06)
(0.002691204 5.0948938e-06 2.03092e-06)
(0.0026751435 5.0680862e-06 1.9751366e-06)
(0.0026595636 5.0410655e-06 1.9215391e-06)
(0.0026444411 5.0142578e-06 1.8699669e-06)
(0.002629754 4.988017e-06 1.8202521e-06)
(0.0026154815 4.9620714e-06 1.7722792e-06)
(0.0026016045 4.9361417e-06 1.7259612e-06)
(0.0025881054 4.9100856e-06 1.6812144e-06)
(0.0025749674 4.8838316e-06 1.6379654e-06)
(0.002562175 4.8573402e-06 1.5961462e-06)
(0.0025497136 4.8305813e-06 1.5556928e-06)
(0.0025375693 4.8035387e-06 1.516549e-06)
(0.0025257292 4.7761746e-06 1.4786612e-06)
(0.002514181 4.7483824e-06 1.4419864e-06)
(0.0025029134 4.7202743e-06 1.4064836e-06)
(0.0024919154 4.691913e-06 1.3721017e-06)
(0.0024811765 4.6632896e-06 1.3387972e-06)
(0.002470687 4.6344021e-06 1.3065298e-06)
(0.0024604377 4.6052673e-06 1.2752603e-06)
(0.0024504197 4.5759083e-06 1.2449538e-06)
(0.0024406247 4.5463441e-06 1.2155768e-06)
(0.0024310448 4.5165993e-06 1.1870931e-06)
(0.0024216723 4.4866944e-06 1.1594722e-06)
(0.0024125001 4.4566507e-06 1.1326839e-06)
(0.0024035213 4.4264877e-06 1.1066965e-06)
(0.0023947295 4.3962279e-06 1.0814821e-06)
(0.0023861184 4.3658893e-06 1.0570131e-06)
(0.0023776821 4.3354869e-06 1.0332599e-06)
(0.0023694149 4.3050334e-06 1.0101963e-06)
(0.0023613115 4.2745351e-06 9.877946e-07)
(0.0023533667 4.2439934e-06 9.6603009e-07)
(0.0023455757 4.2133956e-06 9.4487497e-07)
(0.0023379338 4.1827202e-06 9.2429944e-07)
(0.0023304365 4.1519254e-06 9.0427601e-07)
(0.0023230798 4.1209527e-06 8.8477215e-07)
(0.0023158597 4.0897233e-06 8.6575203e-07)
(0.0023087726 4.0581567e-06 8.4717247e-07)
(0.002301815 4.0261911e-06 8.2898076e-07)
(0.0022949838 3.993877e-06 8.1110702e-07)
(0.0022882766 3.9615308e-06 7.9346321e-07)
(0.002281691 3.9300775e-06 7.7594397e-07)
(0.0022752261 3.9016929e-06 7.5847804e-07)
(0.002268882 3.8809404e-06 7.412464e-07)
(0.0022626608 3.8766479e-06 7.2572688e-07)
(0.0022565686 3.9043044e-06 7.1957947e-07)
(0.0022506189 3.986654e-06 7.5579928e-07)
(0.0022447715 4.1391006e-06 8.4931815e-07)
(0.002233564 4.2832254e-06 2.4122102e-06)
(0.0094843561 6.6886586e-05 0.00022303624)
(0.0091549219 0.00011904886 0.00026838771)
(0.0087072816 0.00014772496 0.00025588053)
(0.0082191888 0.00015892952 0.00023765677)
(0.0077602858 0.00016026049 0.00021787142)
(0.0073412804 0.00015505102 0.00019586613)
(0.0069552494 0.00014481701 0.00017327438)
(0.0065978366 0.00013121474 0.00015165024)
(0.0062677954 0.00011592881 0.00013169211)
(0.0059642872 0.00010028521 0.0001136244)
(0.0056860598 8.5214431e-05 9.7497522e-05)
(0.0054316726 7.1330408e-05 8.3272196e-05)
(0.0051997008 5.8984298e-05 7.0844884e-05)
(0.0049887459 4.8311752e-05 6.0073372e-05)
(0.0047973943 3.929158e-05 5.079889e-05)
(0.0046242055 3.1804353e-05 4.2859902e-05)
(0.0044677269 2.5679085e-05 3.6099807e-05)
(0.0043265179 2.0725785e-05 3.0371291e-05)
(0.0041991724 1.6756343e-05 2.5538701e-05)
(0.004084339 1.3596836e-05 2.1479082e-05)
(0.0039807371 1.1093753e-05 1.8082324e-05)
(0.0038871692 9.1161636e-06 1.525079e-05)
(0.0038025288 7.5553797e-06 1.2898647e-05)
(0.003725804 6.3231332e-06 1.0950986e-05)
(0.0036560786 5.3488188e-06 9.3426779e-06)
(0.0035925304 4.5751807e-06 8.0166139e-06)
(0.0035344253 3.9621e-06 6.923949e-06)
(0.0034811131 3.4726273e-06 6.0250734e-06)
(0.0034320221 3.0815205e-06 5.2862637e-06)
(0.0033866501 2.7702765e-06 4.6792105e-06)
(0.0033445586 2.5236727e-06 4.1805206e-06)
(0.0033053662 2.3295869e-06 3.7707524e-06)
(0.0032687419 2.1784971e-06 3.4337446e-06)
(0.0032343982 2.062905e-06 3.1561108e-06)
(0.0032020863 1.9768092e-06 2.9267979e-06)
(0.0031715907 1.9153179e-06 2.7367033e-06)
(0.0031427248 1.8743802e-06 2.5783548e-06)
(0.0031153267 1.8506053e-06 2.4456284e-06)
(0.0030892563 1.8411235e-06 2.3335218e-06)
(0.0030643915 1.8434984e-06 2.237967e-06)
(0.003040626 1.8556439e-06 2.1556627e-06)
(0.0030178671 1.8757799e-06 2.0839517e-06)
(0.0029960335 1.9023797e-06 2.0206948e-06)
(0.0029750538 1.9341322e-06 1.9641823e-06)
(0.0029548648 1.9699134e-06 1.9130531e-06)
(0.0029354109 2.0087602e-06 1.8662265e-06)
(0.0029166424 2.0498554e-06 1.8228515e-06)
(0.0028985148 2.0925085e-06 1.782257e-06)
(0.0028809885 2.1361359e-06 1.7439143e-06)
(0.0028640277 2.1802694e-06 1.7074101e-06)
(0.0028475999 2.2245495e-06 1.6724137e-06)
(0.0028316758 2.2687588e-06 1.6386551e-06)
(0.0028162284 2.3128926e-06 1.6058727e-06)
(0.0028012324 2.3570802e-06 1.5738231e-06)
(0.0027866658 2.3978708e-06 1.5431878e-06)
(0.0027725089 2.4362341e-06 1.5136864e-06)
(0.0027587418 2.47344e-06 1.4848887e-06)
(0.002745346 2.5095338e-06 1.4567008e-06)
(0.002732305 2.5443503e-06 1.4291156e-06)
(0.0027196032 2.5777724e-06 1.4021113e-06)
(0.0027072261 2.6097235e-06 1.3756642e-06)
(0.0026951602 2.6401656e-06 1.3497561e-06)
(0.0026833928 2.6690889e-06 1.3243748e-06)
(0.0026719116 2.6965043e-06 1.299509e-06)
(0.0026607054 2.7223719e-06 1.2751532e-06)
(0.0026497635 2.7463544e-06 1.2513132e-06)
(0.002639076 2.7689083e-06 1.2279777e-06)
(0.0026286333 2.7901451e-06 1.2051282e-06)
(0.0026184262 2.8099923e-06 1.182761e-06)
(0.0026084461 2.8284307e-06 1.1608705e-06)
(0.0025986849 2.8454932e-06 1.1394502e-06)
(0.0025891348 2.8612162e-06 1.1184909e-06)
(0.0025797885 2.875647e-06 1.0979864e-06)
(0.002570639 2.8888286e-06 1.077929e-06)
(0.0025616795 2.900805e-06 1.0583087e-06)
(0.0025529038 2.91162e-06 1.0391191e-06)
(0.0025443058 2.9213126e-06 1.0203492e-06)
(0.0025358796 2.9299288e-06 1.0019895e-06)
(0.0025276198 2.9375064e-06 9.8403179e-07)
(0.002519521 2.9440797e-06 9.6646474e-07)
(0.0025115783 2.9496805e-06 9.4928005e-07)
(0.0025037869 2.9543366e-06 9.32461e-07)
(0.0024961421 2.9580676e-06 9.1600045e-07)
(0.0024886396 2.9608797e-06 8.998802e-07)
(0.0024812752 2.9627715e-06 8.8408462e-07)
(0.002474045 2.9637198e-06 8.6859405e-07)
(0.0024669452 2.9636856e-06 8.5338178e-07)
(0.0024599723 2.9626107e-06 8.3841451e-07)
(0.0024531231 2.9604293e-06 8.2364257e-07)
(0.0024463945 2.9570955e-06 8.0900348e-07)
(0.0024397839 2.9526511e-06 7.9439843e-07)
(0.0024332894 2.9473508e-06 7.7969406e-07)
(0.0024269099 2.941913e-06 7.6470945e-07)
(0.0024206457 2.9379223e-06 7.4925957e-07)
(0.0024144993 2.93842e-06 7.3336459e-07)
(0.0024084767 2.9484962e-06 7.1826438e-07)
(0.0024025877 2.9751251e-06 7.1113273e-07)
(0.002396846 3.0234599e-06 7.4331302e-07)
(0.0023911946 3.0808304e-06 8.3046747e-07)
(0.0023803644 3.0574254e-06 2.2999437e-06)
(0.0094810492 4.4090135e-05 0.00022308885)
(0.0091422796 7.997548e-05 0.00026874495)
(0.0086839084 0.00010160921 0.00025628771)
(0.0081880903 0.00011101591 0.00023793456)
(0.0077246858 0.00011275118 0.00021798622)
(0.0073029895 0.00010953687 0.00019578738)
(0.0069155191 0.00010266029 0.00017296032)
(0.0065579578 9.3267237e-05 0.0001510852)
(0.006229001 8.2539594e-05 0.00013089045)
(0.005927585 7.1446832e-05 0.00011261412)
(0.0056522063 6.0673359e-05 9.6309239e-05)
(0.0054012005 5.0670806e-05 8.1936269e-05)
(0.0051729477 4.1706607e-05 6.9390832e-05)
(0.004965887 3.3898113e-05 5.8529097e-05)
(0.0047784814 2.7249952e-05 4.9189878e-05)
(0.0046092054 2.1693072e-05 4.1208773e-05)
(0.0044565535 1.7117436e-05 3.4426144e-05)
(0.0043190553 1.3395518e-05 2.8691658e-05)
(0.0041952917 1.0397811e-05 2.3866804e-05)
(0.0040839086 8.0023305e-06 1.9826012e-05)
(0.0039836292 6.0997714e-06 1.6456861e-05)
(0.0038932634 4.5956626e-06 1.3659716e-05)
(0.0038117126 3.4106727e-06 1.1347012e-05)
(0.0037379734 2.479928e-06 9.4422921e-06)
(0.0036711359 1.7515114e-06 7.8790901e-06)
(0.0036103859 1.1749053e-06 6.6010333e-06)
(0.0035549935 7.2234153e-07 5.5561208e-06)
(0.0035043108 3.7342582e-07 4.7060697e-06)
(0.0034577717 1.0569739e-07 4.0163443e-06)
(0.0034148763 -9.9089302e-08 3.457413e-06)
(0.0033751872 -2.5333697e-07 3.0054949e-06)
(0.0033383243 -3.6640064e-07 2.6409741e-06)
(0.0033039576 -4.4577922e-07 2.3475735e-06)
(0.0032718009 -4.9748349e-07 2.111826e-06)
(0.0032416065 -5.2634566e-07 1.9226423e-06)
(0.0032131599 -5.3630918e-07 1.7709152e-06)
(0.0031862758 -5.3064006e-07 1.6492026e-06)
(0.0031607936 -5.1206185e-07 1.5514409e-06)
(0.0031365743 -4.8287203e-07 1.4727098e-06)
(0.0031134976 -4.4500859e-07 1.409033e-06)
(0.0030914586 -4.0011262e-07 1.3572057e-06)
(0.0030703663 -3.4957868e-07 1.3146571e-06)
(0.0030501409 -2.9459517e-07 1.2793311e-06)
(0.0030307129 -2.3617102e-07 1.2495914e-06)
(0.0030120207 -1.751671e-07 1.2241404e-06)
(0.0029940105 -1.1232175e-07 1.2019522e-06)
(0.0029766343 -4.8268943e-08 1.1822246e-06)
(0.0029598495 1.6449736e-08 1.164322e-06)
(0.0029436181 8.1354605e-08 1.1477532e-06)
(0.002927906 1.460219e-07 1.1321246e-06)
(0.0029126825 2.1005588e-07 1.1171181e-06)
(0.0028979201 2.7304777e-07 1.1024402e-06)
(0.0028835935 3.3454159e-07 1.0876605e-06)
(0.0028696773 3.9432322e-07 1.0722028e-06)
(0.0028561514 4.570485e-07 1.0590093e-06)
(0.0028429997 5.2060083e-07 1.0472579e-06)
(0.0028302035 5.8225437e-07 1.0356073e-06)
(0.0028177449 6.4163764e-07 1.0238004e-06)
(0.0028056084 6.9901936e-07 1.0118744e-06)
(0.0027937799 7.5456178e-07 9.9986931e-07)
(0.0027822461 8.0835054e-07 9.8781058e-07)
(0.0027709946 8.6046766e-07 9.7571863e-07)
(0.0027600137 9.1102561e-07 9.6360273e-07)
(0.0027492926 9.6019568e-07 9.5144719e-07)
(0.0027388207 1.0080065e-06 9.3926714e-07)
(0.0027285887 1.0528505e-06 9.2746551e-07)
(0.0027185878 1.0958672e-06 9.1582994e-07)
(0.0027088089 1.1374995e-06 9.0425337e-07)
(0.0026992438 1.177767e-06 8.9275913e-07)
(0.0026898847 1.2166557e-06 8.8136558e-07)
(0.0026807244 1.254169e-06 8.7008038e-07)
(0.0026717559 1.2903128e-06 8.5890722e-07)
(0.0026629726 1.3251062e-06 8.4785295e-07)
(0.0026543682 1.3585734e-06 8.3692287e-07)
(0.0026459367 1.3907393e-06 8.2612178e-07)
(0.0026376723 1.4216363e-06 8.1545372e-07)
(0.0026295698 1.4512901e-06 8.0492024e-07)
(0.0026216238 1.4797314e-06 7.9452228e-07)
(0.0026138294 1.5069908e-06 7.8426327e-07)
(0.002606182 1.5330933e-06 7.7413984e-07)
(0.0025986769 1.5580631e-06 7.6415181e-07)
(0.0025913099 1.5819202e-06 7.5429445e-07)
(0.0025840769 1.6046808e-06 7.445653e-07)
(0.0025769739 1.6263475e-06 7.3495292e-07)
(0.0025699972 1.64692e-06 7.2544745e-07)