/*--------------------------------*- C++ -*----------------------------------*\
  =========                 |
  \\      /  F ield         | OpenFOAM: The Open Source CFD Toolbox
   \\    /   O peration     | Website:  https://openfoam.org
    \\  /    A nd           | Version:  7
     \\/     M anipulation  |
\*---------------------------------------------------------------------------*/
FoamFile
{
    version     2.0;
    format      ascii;
    class       surfaceScalarField;
    location    "2800/water";
    object      phi;
}
// * * * * * * * * * * * * * * * * * * * * * * * * * * * * * * * * * * * * * //

dimensions      [1 0 -1 0 0 0 0];

internalField   nonuniform List<scalar> 
156660
(
9.9057239e-05
6.0010402e-06
6.0528092e-06
8.6847498e-05
6.0555113e-06
6.1542307e-06
7.5687891e-05
5.5111362e-06
5.6484701e-06
6.5441704e-05
5.0404181e-06
5.2057689e-06
5.6267661e-05
4.4956436e-06
4.6783992e-06
4.8318019e-05
3.8797648e-06
4.0698778e-06
4.1624776e-05
3.2524448e-06
3.4407981e-06
3.6124897e-05
2.660462e-06
2.8394169e-06
3.1692235e-05
2.1345127e-06
2.2981489e-06
2.8162841e-05
1.6926975e-06
1.8366964e-06
2.5361437e-05
1.3399933e-06
1.4614113e-06
2.3124664e-05
1.0698477e-06
1.1669256e-06
2.1315127e-05
8.687542e-07
9.4078227e-07
1.9825714e-05
7.2110067e-07
7.6831273e-07
1.8577278e-05
6.1248247e-07
6.3595308e-07
1.7513255e-05
5.3125219e-07
5.3277148e-07
1.6593744e-05
4.6879724e-07
4.5071349e-07
1.5790433e-05
4.1913719e-07
3.8417387e-07
1.5082784e-05
3.7829069e-07
3.2935847e-07
1.4455417e-05
3.4367129e-07
2.8369563e-07
1.3896409e-05
3.1361411e-07
2.4539332e-07
1.339622e-05
2.8704451e-07
2.1314454e-07
1.2947015e-05
2.6326033e-07
1.8594508e-07
1.2542237e-05
2.4179365e-07
1.6298461e-07
1.2176318e-05
2.2232207e-07
1.4359689e-07
1.1844484e-05
2.0461479e-07
1.2721879e-07
1.1542609e-05
1.8849492e-07
1.1337974e-07
1.1267116e-05
1.7381571e-07
1.0167793e-07
1.1014892e-05
1.6046272e-07
9.1760856e-08
1.0783252e-05
1.4833966e-07
8.3300629e-08
1.0569851e-05
1.3734903e-07
7.6052118e-08
1.0372614e-05
1.2738861e-07
6.9848322e-08
1.0189731e-05
1.1836805e-07
6.4514837e-08
1.001963e-05
1.1020448e-07
5.9896632e-08
9.8609388e-06
1.0281922e-07
5.5871686e-08
9.7124594e-06
9.6137968e-08
5.234141e-08
9.5731439e-06
9.0091169e-08
4.9224345e-08
9.4420759e-06
8.4614502e-08
4.6453586e-08
9.3184531e-06
7.9648671e-08
4.3974129e-08
9.2015723e-06
7.5139704e-08
4.174107e-08
9.0908166e-06
7.1038182e-08
3.971756e-08
8.9856432e-06
6.7301142e-08
3.787231e-08
8.8855707e-06
6.3894264e-08
3.6178162e-08
8.7901757e-06
6.0780108e-08
3.4614924e-08
8.6990829e-06
5.7926177e-08
3.316665e-08
8.611959e-06
5.5303694e-08
3.1820135e-08
8.5285072e-06
5.2887445e-08
3.0564414e-08
8.4484618e-06
5.0655074e-08
2.9390282e-08
8.3715848e-06
4.8587041e-08
2.8290032e-08
8.2976614e-06
4.666618e-08
2.7257198e-08
8.2264975e-06
4.4877458e-08
2.6286418e-08
8.1579202e-06
4.3208797e-08
2.5368528e-08
8.0917731e-06
4.1649038e-08
2.4498043e-08
8.0279108e-06
4.0186976e-08
2.3675359e-08
7.9662005e-06
3.8812651e-08
2.2897503e-08
7.9065219e-06
3.7518411e-08
2.2160229e-08
7.8487639e-06
3.6297874e-08
2.1460135e-08
7.7928241e-06
3.5145162e-08
2.0794576e-08
7.7386083e-06
3.4054682e-08
2.0161167e-08
7.6860293e-06
3.3021365e-08
1.9557708e-08
7.6350062e-06
3.2040808e-08
1.8982271e-08
7.5854641e-06
3.1109055e-08
1.8433051e-08
7.537333e-06
3.0222622e-08
1.7908494e-08
7.4905478e-06
2.9378234e-08
1.7407004e-08
7.4450476e-06
2.8573017e-08
1.6927201e-08
7.4007755e-06
2.7804229e-08
1.6467776e-08
7.3576783e-06
2.7069596e-08
1.6027611e-08
7.3157057e-06
2.6367056e-08
1.5605633e-08
7.2748103e-06
2.5694648e-08
1.5200675e-08
7.2349479e-06
2.5050543e-08
1.4811832e-08
7.1960767e-06
2.4433106e-08
1.443817e-08
7.158157e-06
2.3840675e-08
1.4078913e-08
7.1211518e-06
2.3271962e-08
1.3733276e-08
7.0850258e-06
2.2725512e-08
1.3400508e-08
7.0497456e-06
2.2200198e-08
1.3079937e-08
7.0152798e-06
2.16949e-08
1.2770882e-08
6.9815985e-06
2.120858e-08
1.2472748e-08
6.9486733e-06
2.0740229e-08
1.2184932e-08
6.9164775e-06
2.0288978e-08
1.1906802e-08
6.8849857e-06
1.9853954e-08
1.1637827e-08
6.8541739e-06
1.9434347e-08
1.1377464e-08
6.8240193e-06
1.9029449e-08
1.1125112e-08
6.7945006e-06
1.8638465e-08
1.0880226e-08
6.7655975e-06
1.8260746e-08
1.064227e-08
6.7372912e-06
1.7895522e-08
1.0410761e-08
6.7095641e-06
1.7542078e-08
1.0185109e-08
6.6823995e-06
1.7199625e-08
9.964878e-09
6.6557825e-06
1.6867282e-08
9.7498342e-09
6.6296983e-06
1.6544105e-08
9.539978e-09
6.6041331e-06
1.6229258e-08
9.3359824e-09
6.5790714e-06
1.5921967e-08
9.1396662e-09
6.554494e-06
1.5622321e-08
8.9551018e-09
6.5303708e-06
1.5332536e-08
8.790667e-09
6.5066467e-06
1.5060459e-08
8.6636129e-09
6.4832094e-06
1.4827787e-08
8.6095169e-09
6.4598103e-06
1.4693068e-08
8.7060221e-09
6.4358387e-06
1.4826404e-08
9.1451475e-09
6.4096302e-06
1.5741745e-08
1.0466747e-08
6.3782854e-06
1.8026552e-08
1.3318249e-08
3.2300201e-08
2.7923543e-08
0.00010646494
4.1872385e-06
6.4599816e-06
0.0001002019
5.695418e-06
6.6231353e-06
9.3659588e-05
5.7790389e-06
6.2744098e-06
8.7011589e-05
5.6514782e-06
6.0369387e-06
8.0422927e-05
5.3669119e-06
5.7173941e-06
7.4094022e-05
4.9022832e-06
5.3063862e-06
6.8167026e-05
4.3278135e-06
4.8516272e-06
6.2722565e-05
3.717891e-06
4.387032e-06
5.7799049e-05
3.1243144e-06
3.9337144e-06
5.3403345e-05
2.5820689e-06
3.5063329e-06
4.9517402e-05
2.1121062e-06
3.1138299e-06
4.6105482e-05
1.7220197e-06
2.7597473e-06
4.3121558e-05
1.4089355e-06
2.4437429e-06
4.0515558e-05
1.1637552e-06
2.163346e-06
3.8237948e-05
9.748585e-07
1.9152336e-06
3.6242683e-05
8.3055975e-07
1.6959573e-06
3.4488759e-05
7.2043698e-07
1.5022849e-06
3.2940716e-05
6.3586297e-07
1.3313172e-06
3.1568463e-05
5.7005008e-07
1.1804931e-06
3.0346733e-05
5.1784896e-07
1.0475522e-06
2.9254398e-05
4.7545955e-07
9.3049033e-07
2.8273782e-05
4.4013958e-07
8.2752024e-07
2.7390054e-05
4.0994892e-07
7.3704008e-07
2.6590699e-05
3.8353953e-07
6.5760857e-07
2.5865102e-05
3.5998888e-07
5.8793071e-07
2.5204197e-05
3.3867632e-07
5.2684262e-07
2.4600205e-05
3.1918359e-07
4.7330347e-07
2.4046429e-05
3.012019e-07
4.263902e-07
2.3537073e-05
2.8455203e-07
3.8526714e-07
2.3067119e-05
2.6911102e-07
3.4918241e-07
2.2632208e-05
2.5478165e-07
3.1747787e-07
2.2228528e-05
2.4147381e-07
2.8959535e-07
2.1852744e-05
2.2911072e-07
2.6504125e-07
2.1501947e-05
2.1762896e-07
2.4337258e-07
2.1173591e-05
2.0696954e-07
2.2420573e-07
2.0865444e-05
1.9707569e-07
2.0720869e-07
2.0575549e-05
1.8789253e-07
1.9209397e-07
2.0302183e-05
1.7936723e-07
1.7861345e-07
2.0043829e-05
1.7144909e-07
1.6655324e-07
1.979915e-05
1.6408983e-07
1.5572943e-07
1.956696e-05
1.5724382e-07
1.4598403e-07
1.934621e-05
1.5086895e-07
1.3718218e-07
1.9135969e-05
1.4492652e-07
1.2920881e-07
1.8935407e-05
1.3937909e-07
1.2196307e-07
1.8743783e-05
1.3419232e-07
1.1535762e-07
1.8560435e-05
1.293351e-07
1.0931728e-07
1.8384766e-05
1.2477906e-07
1.0377715e-07
1.8216241e-05
1.204985e-07
9.8681288e-08
1.8054377e-05
1.1647013e-07
9.3981319e-08
1.7898734e-05
1.1267293e-07
8.9635436e-08
1.7748917e-05
1.0908821e-07
8.5607e-08
1.7604563e-05
1.0570003e-07
8.1862405e-08
1.7465345e-05
1.024934e-07
7.8373275e-08
1.7330962e-05
9.9453e-08
7.5117008e-08
1.7201138e-05
9.6564406e-08
7.2072703e-08
1.7075619e-05
9.3816648e-08
6.9221131e-08
1.695417e-05
9.1201138e-08
6.6545073e-08
1.6836577e-05
8.8709099e-08
6.4029534e-08
1.6722638e-05
8.6331964e-08
6.1661054e-08
1.661217e-05
8.4061764e-08
5.9427691e-08
1.6505001e-05
8.1891523e-08
5.7318811e-08
1.640097e-05
7.9814948e-08
5.5324848e-08
1.6299929e-05
7.7826142e-08
5.3437131e-08
1.620174e-05
7.5919884e-08
5.1647902e-08
1.6106272e-05
7.4091048e-08
4.9950125e-08
1.6013404e-05
7.2335004e-08
4.8337363e-08
1.5923022e-05
7.0647726e-08
4.6803841e-08
1.5835019e-05
6.9025729e-08
4.5344273e-08
1.5749294e-05
6.7465515e-08
4.3953681e-08
1.5665753e-05
6.5963768e-08
4.2627699e-08
1.5584307e-05
6.4517349e-08
4.1362152e-08
1.5504871e-05
6.3123406e-08
4.0153359e-08
1.5427365e-05
6.1779285e-08
3.899778e-08
1.5351716e-05
6.0482542e-08
3.7892254e-08
1.5277852e-05
5.9230803e-08
3.6833818e-08
1.5205705e-05
5.8022e-08
3.5819734e-08
1.5135212e-05
5.6854011e-08
3.4847385e-08
1.5066313e-05
5.5724997e-08
3.3914389e-08
1.499895e-05
5.4633113e-08
3.3018415e-08
1.493307e-05
5.3576722e-08
3.215744e-08
1.4868621e-05
5.2554154e-08
3.1329417e-08
1.4805554e-05
5.1563957e-08
3.0532437e-08
1.4743823e-05
5.0604479e-08
2.9764651e-08
1.4683386e-05
4.9674264e-08
2.9024367e-08
1.4624199e-05
4.8771818e-08
2.8309881e-08
1.4566226e-05
4.7895445e-08
2.7619586e-08
1.4509431e-05
4.7043509e-08
2.6951988e-08
1.4453778e-05
4.6214087e-08
2.6305737e-08
1.4399237e-05
4.5405402e-08
2.5679889e-08
1.4345777e-05
4.4615734e-08
2.5073763e-08
1.4293367e-05
4.3844262e-08
2.4487657e-08
1.4241972e-05
4.3092881e-08
2.3923736e-08
1.4191548e-05
4.2369917e-08
2.3387158e-08
1.4142019e-05
4.16993e-08
2.2889621e-08
1.4093249e-05
4.1141668e-08
2.2456622e-08
1.4044951e-05
4.0844634e-08
2.2146524e-08
1.3996485e-05
4.1169185e-08
2.2123042e-08
1.3946229e-05
4.3012282e-08
2.2985395e-08
1.389015e-05
4.8540245e-08
2.5565813e-08
6.3281537e-08
5.0000853e-08
0.00010603565
2.7876425e-06
6.4750379e-06
0.00010074799
4.4145413e-06
6.5685293e-06
9.5493515e-05
4.8594028e-06
6.1741158e-06
9.0256432e-05
4.930369e-06
5.9581921e-06
8.5101366e-05
4.8311767e-06
5.6908011e-06
8.0102875e-05
4.5561761e-06
5.3445981e-06
7.5322251e-05
4.1469521e-06
4.9614853e-06
7.0803266e-05
3.6678925e-06
4.5689837e-06
6.6576264e-05
3.1701903e-06
4.1811255e-06
6.2660725e-05
2.690011e-06
3.8075976e-06
5.9065443e-05
2.2519319e-06
3.4554566e-06
5.5788936e-05
1.8697304e-06
3.1287957e-06
5.2820978e-05
1.5477473e-06
2.8291458e-06
5.014479e-05
1.2836302e-06
2.5563139e-06
4.7739304e-05
1.07123e-06
2.3091141e-06
4.5581183e-05
9.0281506e-07
2.0858661e-06
4.3646423e-05
7.7048784e-07
1.884709e-06
4.1911533e-05
6.6697376e-07
1.7037793e-06
4.0354306e-05
5.85982e-07
1.541295e-06
3.8954268e-05
5.2230228e-07
1.3955849e-06
3.769288e-05
4.7175609e-07
1.265091e-06
3.6553576e-05
4.3107985e-07
1.1483634e-06
3.552169e-05
3.9778205e-07
1.0440533e-06
3.4584322e-05
3.6999883e-07
9.5090828e-07
3.3730181e-05
3.4635984e-07
8.6777014e-07
3.2949411e-05
3.2587761e-07
7.9356869e-07
3.2233419e-05
3.078405e-07
7.2733489e-07
3.1574711e-05
2.9172986e-07
6.6818104e-07
3.0966769e-05
2.7719265e-07
6.1530131e-07
3.0403928e-05
2.6398098e-07
5.6797018e-07
2.9881258e-05
2.5190847e-07
5.2554314e-07
2.9394455e-05
2.4082712e-07
4.8745003e-07
2.8939761e-05
2.306216e-07
4.5318328e-07
2.8513895e-05
2.2120153e-07
4.2229386e-07
2.8113985e-05
2.1249191e-07
3.9438673e-07
2.7737518e-05
2.0442797e-07
3.691149e-07
2.7382285e-05
1.9695193e-07
3.4617386e-07
2.7046344e-05
1.9001176e-07
3.2529678e-07
2.6727982e-05
1.8355995e-07
3.0625045e-07
2.6425689e-05
1.7755274e-07
2.8883084e-07
2.6138123e-05
1.7195004e-07
2.7285982e-07
2.5864094e-05
1.6671517e-07
2.5818186e-07
2.5602546e-05
1.6181456e-07
2.4466092e-07
2.535253e-05
1.5721709e-07
2.3217764e-07
2.51132e-05
1.5289444e-07
2.2062726e-07
2.4883797e-05
1.4882099e-07
2.0991774e-07
2.4663634e-05
1.4497366e-07
1.9996812e-07
2.4452094e-05
1.4133186e-07
1.9070707e-07
2.4248615e-05
1.3787696e-07
1.8207153e-07
2.405269e-05
1.3459267e-07
1.7400573e-07
2.3863854e-05
1.314646e-07
1.6645988e-07
2.3681684e-05
1.2848057e-07
1.5938922e-07
2.3505794e-05
1.2562921e-07
1.5275412e-07
2.3335829e-05
1.2289868e-07
1.465197e-07
2.3171462e-05
1.2027636e-07
1.4065461e-07
2.3012394e-05
1.1775474e-07
1.3513024e-07
2.2858345e-05
1.1532972e-07
1.2992039e-07
2.2709057e-05
1.1299537e-07
1.2500172e-07
2.2564291e-05
1.1074516e-07
1.2035289e-07
2.2423824e-05
1.0857347e-07
1.1595458e-07
2.2287451e-05
1.0647549e-07
1.1178923e-07
2.2154978e-05
1.0444702e-07
1.0784082e-07
2.2026226e-05
1.0248421e-07
1.0409459e-07
2.1901025e-05
1.0058352e-07
1.0053714e-07
2.1779218e-05
9.8741561e-08
9.7156154e-08
2.1660658e-05
9.695493e-08
9.3940246e-08
2.1545205e-05
9.5221297e-08
9.0879043e-08
2.1432729e-05
9.3538812e-08
8.7962798e-08
2.1323107e-05
9.1905311e-08
8.5182606e-08
2.1216222e-05
9.0318499e-08
8.2530198e-08
2.1111965e-05
8.8776391e-08
7.9997871e-08
2.1010233e-05
8.7277108e-08
7.7578625e-08
2.0910927e-05
8.5818964e-08
7.5265885e-08
2.0813956e-05
8.4400306e-08
7.3053417e-08
2.0719232e-05
8.301968e-08
7.0935648e-08
2.0626671e-05
8.1675633e-08
6.89072e-08
2.0536195e-05
8.036683e-08
6.6963112e-08
2.0447729e-05
7.9091958e-08
6.5098752e-08
2.0361203e-05
7.7849824e-08
6.3309756e-08
2.0276548e-05
7.6639211e-08
6.1592049e-08
2.0193702e-05
7.5458977e-08
5.9941786e-08
2.0112602e-05
7.4307962e-08
5.8355215e-08
2.0033193e-05
7.318494e-08
5.6829043e-08
1.9955419e-05
7.2088608e-08
5.5359964e-08
1.9879228e-05
7.1017603e-08
5.3944825e-08
1.9804572e-05
6.9970442e-08
5.2580736e-08
1.9731406e-05
6.8945263e-08
5.1264801e-08
1.9659685e-05
6.794011e-08
4.9994382e-08
1.9589371e-05
6.6953047e-08
4.8767023e-08
1.9520423e-05
6.5982374e-08
4.7580531e-08
1.9452807e-05
6.5028025e-08
4.6433098e-08
1.9386482e-05
6.4094112e-08
4.5323738e-08
1.9321404e-05
6.3194672e-08
4.425308e-08
1.9257511e-05
6.2366348e-08
4.3225207e-08
1.9194705e-05
6.1695161e-08
4.2253141e-08
1.9132798e-05
6.1374096e-08
4.1377411e-08
1.9071394e-05
6.1822425e-08
4.0750681e-08
1.9009424e-05
6.3924728e-08
4.1057609e-08
1.8944661e-05
6.9304695e-08
4.3998845e-08
7.9170905e-08
7.4661545e-08
0.0001054937
1.9169871e-06
6.4880406e-06
0.00010005365
3.2729596e-06
6.5816334e-06
9.4926077e-05
3.8288995e-06
6.1580776e-06
8.9946373e-05
3.9838109e-06
5.9262629e-06
8.5163276e-05
3.9595077e-06
5.6547657e-06
8.0619137e-05
3.7899368e-06
5.3103784e-06
7.6329462e-05
3.5015547e-06
4.9350725e-06
7.230016e-05
3.1412013e-06
4.5559928e-06
6.8534206e-05
2.7514802e-06
4.1846641e-06
6.5032983e-05
2.3633493e-06
3.8278852e-06
6.1795789e-05
1.9984143e-06
3.490711e-06
5.8818843e-05
1.670376e-06
3.176301e-06
5.6094717e-05
1.3858295e-06
2.886043e-06
5.3612488e-05
1.1457945e-06
2.6200649e-06
5.1358373e-05
9.4764121e-07
2.3777043e-06
4.9316593e-05
7.8676789e-07
2.1578272e-06
4.7470246e-05
6.5779549e-07
1.9590391e-06
4.5802069e-05
5.5532543e-07
1.7798252e-06
4.4295042e-05
4.7437119e-07
1.6186378e-06
4.293283e-05
4.1056669e-07
1.4739479e-06
4.1700078e-05
3.6023238e-07
1.3442759e-06
4.0582591e-05
3.2035744e-07
1.2282094e-06
3.956742e-05
2.8853739e-07
1.1244154e-06
3.8642881e-05
2.6289066e-07
1.0316467e-06
3.7798527e-05
2.4196986e-07
9.48744e-07
3.7025076e-05
2.2467705e-07
8.7465172e-07
3.6314324e-05
2.1018899e-07
8.084041e-07
3.5659057e-05
1.9788606e-07
7.4911038e-07
3.5052961e-05
1.873158e-07
6.959728e-07
3.449052e-05
1.7814871e-07
6.4827379e-07
3.3966922e-05
1.7013168e-07
6.0537437e-07
3.3477973e-05
1.6306728e-07
5.6670865e-07
3.3020016e-05
1.5680297e-07
5.3177542e-07
3.2589865e-05
1.5122055e-07
5.001324e-07
3.218474e-05
1.4622565e-07
4.7139136e-07
3.1802215e-05
1.4174073e-07
4.4521233e-07
3.1440168e-05
1.3770093e-07
4.212981e-07
3.1096739e-05
1.3405093e-07
3.9938923e-07
3.0770297e-05
1.3074296e-07
3.7925955e-07
3.0459402e-05
1.2773517e-07
3.6071197e-07
3.0162787e-05
1.2499096e-07
3.435748e-07
2.9879325e-05
1.2247785e-07
3.276985e-07
2.960802e-05
1.2016736e-07
3.1295271e-07
2.934798e-05
1.1803382e-07
2.9922353e-07
2.9098408e-05
1.1605466e-07
2.8641139e-07
2.885859e-05
1.1420986e-07
2.7442907e-07
2.8627882e-05
1.1248195e-07
2.6320002e-07
2.8405701e-05
1.1085563e-07
2.5265687e-07
2.819152e-05
1.0931761e-07
2.4274022e-07
2.7984859e-05
1.0785648e-07
2.3339754e-07
2.7785279e-05
1.0646278e-07
2.2458211e-07
2.7592378e-05
1.0512872e-07
2.1625213e-07
2.740579e-05
1.0384738e-07
2.0837036e-07
2.7225174e-05
1.0261121e-07
2.0090361e-07
2.705022e-05
1.0140746e-07
1.9382256e-07
2.6880641e-05
1.0023383e-07
1.8710041e-07
2.6716166e-05
9.909236e-08
1.8071223e-07
2.6556546e-05
9.7980009e-08
1.7463558e-07
2.6401548e-05
9.6892557e-08
1.6885015e-07
2.6250957e-05
9.5827115e-08
1.6333743e-07
2.610457e-05
9.4781713e-08
1.5808045e-07
2.5962199e-05
9.3754732e-08
1.5306366e-07
2.5823666e-05
9.2744882e-08
1.4827262e-07
2.5688804e-05
9.175102e-08
1.4369414e-07
2.5557458e-05
9.0771771e-08
1.3931596e-07
2.5429481e-05
8.9805194e-08
1.3512691e-07
2.5304734e-05
8.8851456e-08
1.3111645e-07
2.5183087e-05
8.7911238e-08
1.2727466e-07
2.5064416e-05
8.6983942e-08
1.2359243e-07
2.4948604e-05
8.6068897e-08
1.200612e-07
2.4835542e-05
8.5165768e-08
1.1667302e-07
2.4725124e-05
8.4274304e-08
1.1342044e-07
2.4617252e-05
8.3394246e-08
1.1029655e-07
2.4511832e-05
8.2525472e-08
1.0729476e-07
2.4408775e-05
8.1667745e-08
1.0440899e-07
2.4307997e-05
8.0820979e-08
1.0163346e-07
2.4209416e-05
7.9985009e-08
9.8962671e-08
2.4112956e-05
7.9159742e-08
9.6391564e-08
2.4018546e-05
7.8345032e-08
9.3915298e-08
2.3926115e-05
7.7540666e-08
9.1529331e-08
2.3835598e-05
7.6746547e-08
8.922929e-08
2.3746933e-05
7.5962313e-08
8.7011037e-08
2.366006e-05
7.518762e-08
8.4870739e-08
2.3574922e-05
7.4421978e-08
8.2804567e-08
2.3491466e-05
7.3664607e-08
8.080894e-08
2.3409641e-05
7.291461e-08
7.8880357e-08
2.33294e-05
7.2170683e-08
7.7015476e-08
2.3250698e-05
7.1431315e-08
7.5211008e-08
2.3173493e-05
7.0694881e-08
7.3463614e-08
2.3097745e-05
6.9960211e-08
7.1770065e-08
2.3023418e-05
6.9228008e-08
7.0127027e-08
2.2950477e-05
6.8503519e-08
6.8531191e-08
2.2878889e-05
6.7802889e-08
6.6979742e-08
2.2808619e-05
6.7165064e-08
6.5471557e-08
2.2739625e-05
6.6675279e-08
6.4013336e-08
2.267185e-05
6.6507059e-08
6.2642288e-08
2.2605149e-05
6.6990712e-08
6.1532358e-08
2.2538888e-05
6.868601e-08
6.1499883e-08
2.2471121e-05
7.2226933e-08
6.4845103e-08
7.6722842e-08
9.8461321e-08
0.0001051979
1.3340885e-06
6.4961221e-06
9.9496561e-05
2.3731022e-06
6.6011947e-06
9.4262459e-05
2.9019224e-06
6.1610799e-06
8.9251186e-05
3.0856641e-06
5.9094196e-06
8.4493498e-05
3.0947346e-06
5.6224614e-06
8.0033635e-05
2.9846656e-06
5.265134e-06
7.5876907e-05
2.7790155e-06
4.8792667e-06
7.2014635e-05
2.5106844e-06
4.4927895e-06
6.8436293e-05
2.2128728e-06
4.1169489e-06
6.5131387e-05
1.9107259e-06
3.7575292e-06
6.208941e-05
1.6217321e-06
3.4186596e-06
5.9299432e-05
1.3573878e-06
3.1029661e-06
5.6749589e-05
1.1240344e-06
2.8116387e-06
5.4426788e-05
9.237795e-07
2.5448158e-06
5.2316754e-05
7.55728e-07
2.3019466e-06
5.0404313e-05
6.1717856e-07
2.0820302e-06
4.8673788e-05
5.0454348e-07
1.8837772e-06
4.7109414e-05
4.139718e-07
1.7057274e-06
4.5695713e-05
3.417365e-07
1.5463363e-06
4.4417792e-05
2.8445146e-07
1.4040359e-06
4.3261575e-05
2.3917115e-07
1.277278e-06
4.2213952e-05
2.0341503e-07
1.1645652e-06
4.1262871e-05
1.7514741e-07
1.0644719e-06
4.039737e-05
1.5273232e-07
9.7565898e-07
3.9607583e-05
1.3487527e-07
8.9688143e-07
3.8884688e-05
1.2055567e-07
8.2701639e-07
3.8220848e-05
1.090109e-07
7.6501853e-07
3.7609155e-05
9.9633836e-08
7.0994487e-07
3.7043542e-05
9.197745e-08
6.6095088e-07
3.6518702e-05
8.5705811e-08
6.1728287e-07
3.6030009e-05
8.0552381e-08
5.7827307e-07
3.5573433e-05
7.6308266e-08
5.4333413e-07
3.5145475e-05
7.2811274e-08
5.1195027e-07
3.4743091e-05
6.9934136e-08
4.8367023e-07
3.4363641e-05
6.7575448e-08
4.5810064e-07
3.4004828e-05
6.5652879e-08
4.3489997e-07
3.3664659e-05
6.4098574e-08
4.1377211e-07
3.3341393e-05
6.2855906e-08
3.9446093e-07
3.3033513e-05
6.1877036e-08
3.7674525e-07
3.2739693e-05
6.1121112e-08
3.6043425e-07
3.2458768e-05
6.0553092e-08
3.4536328e-07
3.2189712e-05
6.0142692e-08
3.3139056e-07
3.1931622e-05
5.9863657e-08
3.1839377e-07
3.1683696e-05
5.9693136e-08
3.0626736e-07
3.1445219e-05
5.961122e-08
2.9492009e-07
3.1215555e-05
5.9600624e-08
2.8427317e-07
3.0994132e-05
5.9646567e-08
2.7425807e-07
3.0780436e-05
5.9736181e-08
2.648154e-07
3.0574002e-05
5.9858677e-08
2.5589332e-07
3.0374407e-05
6.0004946e-08
2.4744664e-07
3.0181267e-05
6.0167649e-08
2.3943548e-07
2.9994229e-05
6.0341268e-08
2.3182484e-07
2.9812971e-05
6.0521819e-08
2.245837e-07
2.9637193e-05
6.0704467e-08
2.1768456e-07
2.9466629e-05
6.0867281e-08
2.1110457e-07
2.9301024e-05
6.1016979e-08
2.0482179e-07
2.914014e-05
6.1160867e-08
1.9881569e-07
2.8983756e-05
6.1294981e-08
1.930684e-07
2.8831669e-05
6.1415454e-08
1.8756389e-07
2.8683688e-05
6.1520923e-08
1.8228763e-07
2.8539633e-05
6.1610564e-08
1.7722635e-07
2.8399336e-05
6.1683781e-08
1.7236784e-07
2.8262639e-05
6.174051e-08
1.6770092e-07
2.8129394e-05
6.1780662e-08
1.6321518e-07
2.7999461e-05
6.1803885e-08
1.5890121e-07
2.7872709e-05
6.1807381e-08
1.5475033e-07
2.7749012e-05
6.1793578e-08
1.5075442e-07
2.7628253e-05
6.1764828e-08
1.4690558e-07
2.7510319e-05
6.1721017e-08
1.4319664e-07
2.7395105e-05
6.1662102e-08
1.3962084e-07
2.728251e-05
6.1588621e-08
1.3617201e-07
2.7172439e-05
6.1501069e-08
1.3284422e-07
2.7064802e-05
6.1399981e-08
1.2963194e-07
2.6959511e-05
6.1285937e-08
1.2652991e-07
2.6856486e-05
6.115952e-08
1.2353324e-07
2.6755649e-05
6.102129e-08
1.2063733e-07
2.6656924e-05
6.0871856e-08
1.1783768e-07
2.6560242e-05
6.0711696e-08
1.1513015e-07
2.6465535e-05
6.0541376e-08
1.1251076e-07
2.6372738e-05
6.0361325e-08
1.099758e-07
2.6281791e-05
6.0171932e-08
1.0752158e-07
2.6192636e-05
5.9973546e-08
1.0514469e-07
2.6105215e-05
5.976632e-08
1.0284187e-07
2.6019477e-05
5.9550232e-08
1.0060974e-07
2.5935371e-05
5.9325147e-08
9.8445298e-08
2.585285e-05
5.909052e-08
9.6345394e-08
2.5771868e-05
5.8845497e-08
9.4306909e-08
2.5692384e-05
5.8588987e-08
9.2326727e-08
2.5614357e-05
5.8319816e-08
9.040146e-08
2.5537753e-05
5.8037097e-08
8.8527334e-08
2.5462539e-05
5.7741633e-08
8.6700186e-08
2.5388689e-05
5.7438377e-08
8.4915166e-08
2.5316184e-05
5.7141419e-08
8.3166636e-08
2.5245017e-05
5.6882589e-08
8.1449633e-08
2.51752e-05
5.6726018e-08
7.9765814e-08
2.510677e-05
5.6787911e-08
7.8149191e-08
2.5039729e-05
5.7251582e-08
7.6780957e-08
2.4973573e-05
5.8330907e-08
7.6510216e-08
2.4906079e-05
5.9989461e-08
7.9732164e-08
6.0714978e-08
1.1287825e-07
0.00010503672
9.0789371e-07
6.5005614e-06
9.9140653e-05
1.6524914e-06
6.6166802e-06
9.3788329e-05
2.0825241e-06
6.1717217e-06
8.8708526e-05
2.2549373e-06
5.91053e-06
8.3909682e-05
2.278404e-06
5.6151748e-06
7.9437109e-05
2.2074821e-06
5.2497564e-06
7.5296201e-05
2.0645348e-06
4.8553893e-06
7.1474034e-05
1.8722543e-06
4.460597e-06
6.7955013e-05
1.6547667e-06
4.0771269e-06
6.4723621e-05
1.4313505e-06
3.7107669e-06
6.1764423e-05
1.2154298e-06
3.3655007e-06
5.9062056e-05
1.015864e-06
3.0438911e-06
5.6601108e-05
8.3782745e-07
2.7471548e-06
5.4365944e-05
6.834465e-07
2.475497e-06
5.2340648e-05
5.5258527e-07
2.2284384e-06
5.0509125e-05
4.436655e-07
2.0050361e-06
4.8855299e-05
3.5433456e-07
1.8040352e-06
4.7363353e-05
2.8193591e-07
1.6239821e-06
4.6017963e-05
2.2381345e-07
1.4633127e-06
4.4804502e-05
1.7749382e-07
1.3204181e-06
4.3709199e-05
1.4078088e-07
1.1936935e-06
4.2719248e-05
1.1179153e-07
1.081575e-06
4.1822875e-05
8.8954557e-08
9.8256581e-07
4.1009364e-05
7.0988013e-08
8.9525473e-07
4.0269054e-05
5.686181e-08
8.1832381e-07
3.9593306e-05
4.5719127e-08
7.5058474e-07
3.8974405e-05
3.697787e-08
6.9093436e-07
3.8405585e-05
3.0067371e-08
6.3838632e-07
3.7880869e-05
2.4650875e-08
5.9204243e-07
3.7395029e-05
2.0439992e-08
5.5110607e-07
3.6943514e-05
1.7190264e-08
5.1487713e-07
3.6522366e-05
1.4716753e-08
4.8273958e-07
3.6128148e-05
1.2874766e-08
4.5415389e-07
3.5757883e-05
1.1549894e-08
4.2864941e-07
3.5408991e-05
1.0650779e-08
4.0581702e-07
3.5079238e-05
1.0103611e-08
3.8530227e-07
3.4766689e-05
9.848257e-09
3.6679879e-07
3.4469668e-05
9.8351099e-09
3.5004235e-07
3.4186716e-05
1.0022914e-08
3.3480551e-07
3.3916567e-05
1.0377039e-08
3.2089285e-07
3.3658116e-05
1.0868057e-08
3.0813656e-07
3.3410395e-05
1.1470975e-08
2.9639283e-07
3.3172556e-05
1.2164253e-08
2.8553828e-07
3.2943852e-05
1.2929318e-08
2.7546719e-07
3.2723625e-05
1.3750186e-08
2.6608893e-07
3.2511286e-05
1.4613086e-08
2.5732572e-07
3.2306316e-05
1.5506235e-08
2.4911065e-07
3.2108246e-05
1.6419586e-08
2.4138621e-07
3.1916658e-05
1.7344638e-08
2.3410269e-07
3.1731171e-05
1.8274347e-08
2.272171e-07
3.1551444e-05
1.9203188e-08
2.2069215e-07
3.1377162e-05
2.0127747e-08
2.1449508e-07
3.1208038e-05
2.1048673e-08
2.085968e-07
3.10438e-05
2.1972767e-08
2.0297055e-07
3.0884232e-05
2.282786e-08
1.9760737e-07
3.0729103e-05
2.3662961e-08
1.9248227e-07
3.05782e-05
2.4489985e-08
1.8757378e-07
3.0431331e-05
2.5296285e-08
1.8286762e-07
3.0288318e-05
2.6077994e-08
1.7835077e-07
3.0148994e-05
2.6834299e-08
1.7401105e-07
3.0013202e-05
2.7564689e-08
1.6983756e-07
2.9880797e-05
2.8268964e-08
1.6582024e-07
2.975164e-05
2.8947414e-08
1.6195011e-07
2.96256e-05
2.9600787e-08
1.5821896e-07
2.9502557e-05
3.0228569e-08
1.5461919e-07
2.9382396e-05
3.0823606e-08
1.5114466e-07
2.9265007e-05
3.1393146e-08
1.477888e-07
2.9150287e-05
3.1939605e-08
1.4454539e-07
2.9038137e-05
3.2461897e-08
1.4140901e-07
2.8928465e-05
3.2960063e-08
1.3837461e-07
2.8821181e-05
3.3434749e-08
1.354375e-07
2.8716203e-05
3.3886384e-08
1.3259331e-07
2.8613449e-05
3.4315593e-08
1.2983788e-07
2.8512845e-05
3.4722864e-08
1.2716737e-07
2.8414317e-05
3.5108974e-08
1.2457812e-07
2.8317797e-05
3.5474451e-08
1.2206682e-07
2.8223219e-05
3.5819927e-08
1.1963011e-07
2.813052e-05
3.614592e-08
1.1726494e-07
2.803964e-05
3.6453071e-08
1.1496837e-07
2.7950522e-05
3.6741878e-08
1.1273772e-07
2.7863111e-05
3.7012797e-08
1.1057027e-07
2.7777354e-05
3.7266246e-08
1.0846345e-07
2.7693204e-05
3.7502478e-08
1.0641474e-07
2.761061e-05
3.7721602e-08
1.0442176e-07
2.752953e-05
3.7923555e-08
1.0248203e-07
2.744992e-05
3.8107999e-08
1.0059307e-07
2.7371738e-05
3.8274283e-08
9.8752307e-08
2.7294949e-05
3.8421537e-08
9.6956915e-08
2.7219516e-05
3.8548719e-08
9.5203657e-08
2.714541e-05
3.8655102e-08
9.3488641e-08
2.7072603e-05
3.8741166e-08
9.1806988e-08
2.7001079e-05
3.8810255e-08
9.0152321e-08
2.6930832e-05
3.8872112e-08
8.8516566e-08
2.6861876e-05
3.8947393e-08
8.6890535e-08
2.679426e-05
3.9073503e-08
8.5269194e-08
2.6728065e-05
3.9306927e-08
8.3675945e-08
2.6663337e-05
3.9708314e-08
8.2271149e-08
2.659956e-05
4.0271981e-08
8.1836177e-08
2.6534295e-05
4.0698023e-08
8.4555711e-08
3.9620853e-08
1.150713e-07
0.00010494757
5.6811082e-07
6.5033076e-06
9.8925416e-05
1.0462983e-06
6.6283517e-06
9.3480449e-05
1.3439845e-06
6.1835065e-06
8.8341777e-05
1.4751324e-06
5.9184762e-06
8.3502084e-05
1.4993911e-06
5.6187065e-06
7.9004057e-05
1.4572411e-06
5.2482679e-06
7.4853978e-05
1.3667382e-06
4.8478757e-06
7.1037378e-05
1.2423973e-06
4.4464569e-06
6.7536062e-05
1.0997693e-06
4.0563128e-06
6.4331998e-05
9.5192362e-07
3.683491e-06
6.1407318e-05
8.0805755e-07
3.3320524e-06
5.8744339e-05
6.7422203e-07
3.0046209e-06
5.6325632e-05
5.5404399e-07
2.7024907e-06
5.4133973e-05
4.4916748e-07
2.4259383e-06
5.2152298e-05
3.5972403e-07
2.174536e-06
5.0363747e-05
2.8484513e-07
1.9473718e-06
4.875178e-05
2.2310006e-07
1.7432015e-06
4.7300339e-05
1.7281166e-07
1.5605647e-06
4.5994012e-05
1.3226571e-07
1.3978748e-06
4.4818177e-05
9.9840005e-08
1.2534891e-06
4.3759121e-05
7.4075582e-08
1.1257614e-06
4.2804123e-05
5.3707638e-08
1.0130814e-06
4.1941503e-05
3.7671203e-08
9.1390376e-07
4.1160627e-05
2.509644e-08
8.267673e-07
4.0451891e-05
1.5294176e-08
7.5030388e-07
3.980679e-05
7.5281675e-09
6.8329173e-07
3.9217543e-05
1.6727831e-09
6.2455202e-07
3.8677513e-05
-3.0330906e-09
5.7313085e-07
3.8180739e-05
-6.6486494e-09
5.2807357e-07
3.7722004e-05
-9.3594852e-09
4.8853451e-07
3.7296777e-05
-1.1371783e-08
4.5378928e-07
3.6901112e-05
-1.2818227e-08
4.2319913e-07
3.6531588e-05
-1.3805317e-08
3.9620482e-07
3.6185236e-05
-1.4417488e-08
3.7231875e-07
3.5859491e-05
-1.4721911e-08
3.5111773e-07
3.5552132e-05
-1.4772642e-08
3.3223578e-07
3.5261237e-05
-1.4613916e-08
3.1535731e-07
3.4985143e-05
-1.428218e-08
3.0021091e-07
3.472241e-05
-1.3807708e-08
2.8656376e-07
3.4471787e-05
-1.3215902e-08
2.7421629e-07
3.4232185e-05
-1.2528198e-08
2.6299768e-07
3.4002657e-05
-1.1762783e-08
2.5276172e-07
3.3782373e-05
-1.0935235e-08
2.4338337e-07
3.3570606e-05
-1.0058755e-08
2.3475557e-07
3.3366714e-05
-9.1447441e-09
2.2678673e-07
3.3170131e-05
-8.2028164e-09
2.1939832e-07
3.2980356e-05
-7.2412465e-09
2.1252299e-07
3.279694e-05
-6.2668926e-09
2.0610281e-07
3.2619482e-05
-5.2855419e-09
2.0008782e-07
3.2447623e-05
-4.3018183e-09
1.9443479e-07
3.228104e-05
-3.3190456e-09
1.8910587e-07
3.2119438e-05
-2.3383246e-09
1.8406733e-07
3.1962554e-05
-1.3530546e-09
1.7928648e-07
3.1810075e-05
-2.7634902e-10
1.7472764e-07
3.1661878e-05
5.858282e-10
1.7043905e-07
3.1517732e-05
1.4356124e-09
1.6637295e-07
3.1377429e-05
2.303815e-09
1.624896e-07
3.1240792e-05
3.1586408e-09
1.5877483e-07
3.1107656e-05
3.9969927e-09
1.5521719e-07
3.0977867e-05
4.8171882e-09
1.5180545e-07
3.0851284e-05
5.6179848e-09
1.4852967e-07
3.0727774e-05
6.3990632e-09
1.4538077e-07
3.0607209e-05
7.1609342e-09
1.4235052e-07
3.0489473e-05
7.905952e-09
1.3943119e-07
3.037445e-05
8.6357799e-09
1.3661578e-07
3.0262049e-05
9.3206735e-09
1.3390397e-07
3.0152163e-05
9.9938545e-09
1.3128566e-07
3.0044697e-05
1.0650389e-08
1.2875515e-07
2.9939564e-05
1.1286731e-08
1.2630829e-07
2.983668e-05
1.1903205e-08
1.239409e-07
2.9735965e-05
1.2500155e-08
1.2164886e-07
2.9637345e-05
1.3077895e-08
1.1942845e-07
2.9540748e-05
1.3636713e-08
1.1727615e-07
2.9446105e-05
1.4177041e-08
1.1518884e-07
2.9353352e-05
1.4699165e-08
1.1316338e-07
2.9262425e-05
1.5203508e-08
1.1119702e-07
2.9173268e-05
1.5690504e-08
1.092871e-07
2.9085822e-05
1.6160387e-08
1.0743108e-07
2.9000035e-05
1.6613585e-08
1.0562666e-07
2.8915855e-05
1.7050395e-08
1.0387152e-07
2.8833233e-05
1.7471109e-08
1.0216363e-07
2.8752123e-05
1.7875974e-08
1.0050084e-07
2.8672479e-05
1.8265094e-08
9.8881123e-08
2.8594259e-05
1.8638538e-08
9.7302524e-08
2.8517424e-05
1.8996209e-08
9.5762971e-08
2.8441934e-05
1.9337794e-08
9.4260342e-08
2.8367753e-05
1.9662796e-08
9.2792342e-08
2.8294848e-05
1.9970474e-08
9.1356258e-08
2.8223187e-05
2.0259993e-08
8.9948832e-08
2.8152746e-05
2.0530717e-08
8.8565913e-08
2.8083503e-05
2.0782626e-08
8.7201803e-08
2.8015447e-05
2.1017536e-08
8.5848687e-08
2.7948582e-05
2.1240707e-08
8.4495801e-08
2.7882937e-05
2.1462727e-08
8.3129494e-08
2.7818574e-05
2.1699954e-08
8.1736519e-08
2.7755588e-05
2.1969273e-08
8.032437e-08
2.7694014e-05
2.2266157e-08
7.9016057e-08
2.7633299e-05
2.2506241e-08
7.848065e-08
2.7571004e-05
2.2393371e-08
8.0599422e-08
2.0993095e-08
1.0779943e-07
0.00010489986
2.7443377e-07
6.5049155e-06
9.8802772e-05
5.0716633e-07
6.6362236e-06
9.329591e-05
6.5854976e-07
6.1922972e-06
8.8116302e-05
7.2902547e-07
5.9257148e-06