/*--------------------------------*- C++ -*----------------------------------*\
  =========                 |
  \\      /  F ield         | OpenFOAM: The Open Source CFD Toolbox
   \\    /   O peration     | Website:  https://openfoam.org
    \\  /    A nd           | Version:  7
     \\/     M anipulation  |
\*---------------------------------------------------------------------------*/
FoamFile
{
    version     2.0;
    format      ascii;
    class       surfaceScalarField;
    location    "1950/water";
    object      phi;
}
// * * * * * * * * * * * * * * * * * * * * * * * * * * * * * * * * * * * * * //

dimensions      [1 0 -1 0 0 0 0];

internalField   nonuniform List<scalar> 
156660
(
9.9057239e-05
6.0010402e-06
6.0528092e-06
8.6847498e-05
6.0555113e-06
6.1542307e-06
7.5687891e-05
5.5111362e-06
5.6484701e-06
6.5441704e-05
5.0404181e-06
5.2057689e-06
5.6267661e-05
4.4956436e-06
4.6783992e-06
4.8318019e-05
3.8797648e-06
4.0698777e-06
4.1624776e-05
3.2524449e-06
3.4407981e-06
3.6124897e-05
2.660462e-06
2.839417e-06
3.1692235e-05
2.1345127e-06
2.2981489e-06
2.8162841e-05
1.6926975e-06
1.8366964e-06
2.5361437e-05
1.3399933e-06
1.4614113e-06
2.3124664e-05
1.0698477e-06
1.1669256e-06
2.1315127e-05
8.6875419e-07
9.4078227e-07
1.9825714e-05
7.2110063e-07
7.6831274e-07
1.8577278e-05
6.1248245e-07
6.3595308e-07
1.7513255e-05
5.3125221e-07
5.3277149e-07
1.6593744e-05
4.6879726e-07
4.5071347e-07
1.5790433e-05
4.1913718e-07
3.8417387e-07
1.5082784e-05
3.7829071e-07
3.2935849e-07
1.4455417e-05
3.436713e-07
2.8369562e-07
1.3896409e-05
3.1361412e-07
2.4539335e-07
1.339622e-05
2.8704452e-07
2.1314454e-07
1.2947015e-05
2.632603e-07
1.859451e-07
1.2542237e-05
2.4179366e-07
1.6298461e-07
1.2176318e-05
2.2232209e-07
1.4359688e-07
1.1844484e-05
2.0461481e-07
1.272188e-07
1.1542609e-05
1.8849497e-07
1.1337972e-07
1.1267116e-05
1.7381573e-07
1.0167793e-07
1.1014892e-05
1.6046269e-07
9.1760831e-08
1.0783252e-05
1.4833968e-07
8.3300619e-08
1.0569851e-05
1.3734905e-07
7.6052144e-08
1.0372614e-05
1.2738863e-07
6.9848313e-08
1.0189731e-05
1.1836809e-07
6.4514835e-08
1.001963e-05
1.1020447e-07
5.9896617e-08
9.8609388e-06
1.0281921e-07
5.5871655e-08
9.7124594e-06
9.6137961e-08
5.2341343e-08
9.5731439e-06
9.0091185e-08
4.9224357e-08
9.4420759e-06
8.4614466e-08
4.6453587e-08
9.3184531e-06
7.964867e-08
4.3974132e-08
9.2015723e-06
7.5139718e-08
4.17411e-08
9.0908166e-06
7.1038179e-08
3.9717557e-08
8.9856432e-06
6.7301166e-08
3.7872301e-08
8.8855707e-06
6.3894225e-08
3.6178147e-08
8.7901757e-06
6.0780085e-08
3.4614918e-08
8.6990829e-06
5.7926171e-08
3.3166628e-08
8.6119591e-06
5.5303704e-08
3.1820111e-08
8.5285072e-06
5.2887423e-08
3.0564371e-08
8.4484618e-06
5.0655035e-08
2.9390271e-08
8.3715848e-06
4.8587022e-08
2.8290021e-08
8.2976614e-06
4.6666165e-08
2.7257198e-08
8.2264975e-06
4.4877501e-08
2.6286404e-08
8.1579202e-06
4.3208776e-08
2.5368523e-08
8.0917731e-06
4.1649036e-08
2.4498034e-08
8.0279108e-06
4.0187003e-08
2.3675337e-08
7.9662005e-06
3.8812694e-08
2.2897532e-08
7.9065219e-06
3.7518409e-08
2.2160202e-08
7.8487639e-06
3.629786e-08
2.1460148e-08
7.7928242e-06
3.5145133e-08
2.0794597e-08
7.7386084e-06
3.4054649e-08
2.0161159e-08
7.6860293e-06
3.3021374e-08
1.9557693e-08
7.6350062e-06
3.2040819e-08
1.8982255e-08
7.5854641e-06
3.1109084e-08
1.8433058e-08
7.537333e-06
3.0222626e-08
1.7908489e-08
7.4905478e-06
2.937826e-08
1.7406995e-08
7.4450476e-06
2.8573003e-08
1.6927186e-08
7.4007755e-06
2.7804254e-08
1.6467783e-08
7.3576783e-06
2.7069603e-08
1.6027608e-08
7.3157056e-06
2.6367062e-08
1.5605643e-08
7.2748103e-06
2.5694668e-08
1.5200665e-08
7.2349479e-06
2.5050558e-08
1.4811832e-08
7.1960766e-06
2.4433083e-08
1.4438189e-08
7.158157e-06
2.3840678e-08
1.4078943e-08
7.1211518e-06
2.3271943e-08
1.3733275e-08
7.0850258e-06
2.2725507e-08
1.3400519e-08
7.0497456e-06
2.2200199e-08
1.3079937e-08
7.0152798e-06
2.1694902e-08
1.2770889e-08
6.9815985e-06
2.1208555e-08
1.2472756e-08
6.9486733e-06
2.0740204e-08
1.218491e-08
6.9164775e-06
2.0288974e-08
1.1906801e-08
6.8849857e-06
1.9853935e-08
1.1637845e-08
6.8541739e-06
1.9434382e-08
1.1377453e-08
6.8240193e-06
1.9029451e-08
1.1125136e-08
6.7945006e-06
1.863848e-08
1.0880255e-08
6.7655975e-06
1.8260782e-08
1.0642315e-08
6.7372912e-06
1.789556e-08
1.0410762e-08
6.709564e-06
1.7542087e-08
1.0185095e-08
6.6823995e-06
1.7199588e-08
9.9648702e-09
6.6557824e-06
1.6867258e-08
9.7498371e-09
6.6296983e-06
1.6544146e-08
9.5399988e-09
6.604133e-06
1.6229252e-08
9.3359977e-09
6.5790714e-06
1.5922001e-08
9.1396843e-09
6.554494e-06
1.5622357e-08
8.9550856e-09
6.5303708e-06
1.533256e-08
8.7906681e-09
6.5066467e-06
1.5060449e-08
8.6636103e-09
6.4832094e-06
1.4827797e-08
8.6095028e-09
6.4598103e-06
1.4693049e-08
8.7060219e-09
6.4358387e-06
1.4826392e-08
9.1451368e-09
6.4096302e-06
1.5741773e-08
1.0466748e-08
6.3782855e-06
1.8026587e-08
1.3318223e-08
3.2300234e-08
2.7923535e-08
0.00010646494
4.1872386e-06
6.4599817e-06
0.0001002019
5.695418e-06
6.6231353e-06
9.3659588e-05
5.7790389e-06
6.2744098e-06
8.7011589e-05
5.6514783e-06
6.0369387e-06
8.0422927e-05
5.366912e-06
5.7173941e-06
7.4094022e-05
4.9022832e-06
5.3063862e-06
6.8167026e-05
4.3278136e-06
4.8516272e-06
6.2722565e-05
3.717891e-06
4.387032e-06
5.7799049e-05
3.1243144e-06
3.9337144e-06
5.3403345e-05
2.5820689e-06
3.5063329e-06
4.9517402e-05
2.1121062e-06
3.1138299e-06
4.6105482e-05
1.7220197e-06
2.7597474e-06
4.3121558e-05
1.4089355e-06
2.4437429e-06
4.0515558e-05
1.1637552e-06
2.163346e-06
3.8237948e-05
9.7485851e-07
1.9152336e-06
3.6242683e-05
8.3055976e-07
1.6959573e-06
3.4488759e-05
7.2043695e-07
1.5022849e-06
3.2940716e-05
6.3586294e-07
1.3313172e-06
3.1568463e-05
5.7005007e-07
1.1804931e-06
3.0346733e-05
5.1784898e-07
1.0475522e-06
2.9254398e-05
4.7545956e-07
9.3049032e-07
2.8273782e-05
4.4013959e-07
8.2752025e-07
2.7390054e-05
4.0994892e-07
7.3704009e-07
2.6590699e-05
3.8353954e-07
6.5760856e-07
2.5865102e-05
3.599889e-07
5.879307e-07
2.5204197e-05
3.3867631e-07
5.2684261e-07
2.4600205e-05
3.1918359e-07
4.7330348e-07
2.4046429e-05
3.0120192e-07
4.2639017e-07
2.3537073e-05
2.8455207e-07
3.8526715e-07
2.3067119e-05
2.69111e-07
3.4918237e-07
2.2632208e-05
2.5478163e-07
3.1747784e-07
2.2228528e-05
2.4147382e-07
2.8959532e-07
2.1852744e-05
2.2911072e-07
2.6504123e-07
2.1501947e-05
2.1762895e-07
2.4337258e-07
2.1173591e-05
2.0696949e-07
2.2420572e-07
2.0865444e-05
1.9707567e-07
2.0720867e-07
2.0575549e-05
1.8789252e-07
1.9209397e-07
2.0302183e-05
1.7936724e-07
1.7861345e-07
2.0043829e-05
1.714491e-07
1.6655323e-07
1.979915e-05
1.6408982e-07
1.5572943e-07
1.956696e-05
1.572438e-07
1.4598402e-07
1.934621e-05
1.5086893e-07
1.3718216e-07
1.9135969e-05
1.4492652e-07
1.2920882e-07
1.8935407e-05
1.3937906e-07
1.2196307e-07
1.8743783e-05
1.3419231e-07
1.1535762e-07
1.8560435e-05
1.2933509e-07
1.0931726e-07
1.8384766e-05
1.2477908e-07
1.0377716e-07
1.8216241e-05
1.204985e-07
9.8681299e-08
1.8054377e-05
1.1647013e-07
9.3981307e-08
1.7898734e-05
1.1267291e-07
8.9635426e-08
1.7748917e-05
1.0908824e-07
8.560699e-08
1.7604563e-05
1.0570005e-07
8.1862397e-08
1.7465345e-05
1.0249342e-07
7.8373269e-08
1.7330962e-05
9.9452962e-08
7.5116974e-08
1.7201138e-05
9.6564409e-08
7.2072731e-08
1.7075619e-05
9.3816609e-08
6.9221123e-08
1.695417e-05
9.1201107e-08
6.6545102e-08
1.6836577e-05
8.8709117e-08
6.4029537e-08
1.6722638e-05
8.6331977e-08
6.1661078e-08
1.661217e-05
8.4061771e-08
5.9427712e-08
1.6505001e-05
8.1891538e-08
5.7318822e-08
1.640097e-05
7.9814928e-08
5.5324843e-08
1.6299929e-05
7.7826162e-08
5.3437132e-08
1.620174e-05
7.5919859e-08
5.1647904e-08
1.6106272e-05
7.4091018e-08
4.9950115e-08
1.6013404e-05
7.2334986e-08
4.8337385e-08
1.5923022e-05
7.0647722e-08
4.6803856e-08
1.5835019e-05
6.9025721e-08
4.5344248e-08
1.5749294e-05
6.7465543e-08
4.3953677e-08
1.5665753e-05
6.596377e-08
4.2627706e-08
1.5584307e-05
6.4517389e-08
4.1362168e-08
1.5504871e-05
6.3123433e-08
4.0153353e-08
1.5427365e-05
6.1779305e-08
3.8997801e-08
1.5351716e-05
6.048255e-08
3.7892274e-08
1.5277852e-05
5.9230825e-08
3.6833854e-08
1.5205705e-05
5.8021992e-08
3.5819763e-08
1.5135212e-05
5.6854006e-08
3.4847379e-08
1.5066313e-05
5.5724985e-08
3.3914365e-08
1.499895e-05
5.4633098e-08
3.3018431e-08
1.493307e-05
5.357672e-08
3.215747e-08
1.4868621e-05
5.2554199e-08
3.1329415e-08
1.4805554e-05
5.1563952e-08
3.053247e-08
1.4743823e-05
5.0604489e-08
2.976468e-08
1.4683385e-05
4.9674269e-08
2.9024378e-08
1.4624199e-05
4.8771795e-08
2.8309878e-08
1.4566226e-05
4.7895438e-08
2.7619573e-08
1.4509431e-05
4.7043502e-08
2.6951955e-08
1.4453778e-05
4.6214103e-08
2.6305756e-08
1.4399237e-05
4.5405426e-08
2.5679886e-08
1.4345777e-05
4.4615724e-08
2.507376e-08
1.4293367e-05
4.3844255e-08
2.4487695e-08
1.4241972e-05
4.3092852e-08
2.392373e-08
1.4191548e-05
4.2369926e-08
2.3387134e-08
1.4142019e-05
4.1699295e-08
2.2889664e-08
1.4093249e-05
4.1141631e-08
2.2456637e-08
1.4044951e-05
4.0844646e-08
2.2146561e-08
1.3996485e-05
4.116917e-08
2.2123071e-08
1.3946229e-05
4.3012316e-08
2.2985423e-08
1.389015e-05
4.8540264e-08
2.5565798e-08
6.328158e-08
5.000088e-08
0.00010603565
2.7876425e-06
6.4750379e-06
0.00010074799
4.4145413e-06
6.5685293e-06
9.5493515e-05
4.8594028e-06
6.1741158e-06
9.0256432e-05
4.930369e-06
5.9581921e-06
8.5101366e-05
4.8311767e-06
5.6908012e-06
8.0102875e-05
4.5561761e-06
5.3445981e-06
7.5322251e-05
4.1469521e-06
4.9614853e-06
7.0803266e-05
3.6678925e-06
4.5689837e-06
6.6576264e-05
3.1701903e-06
4.1811254e-06
6.2660725e-05
2.6900109e-06
3.8075976e-06
5.9065443e-05
2.2519318e-06
3.4554566e-06
5.5788936e-05
1.8697304e-06
3.1287957e-06
5.2820978e-05
1.5477473e-06
2.8291458e-06
5.014479e-05
1.2836302e-06
2.5563139e-06
4.7739304e-05
1.07123e-06
2.3091141e-06
4.5581183e-05
9.0281505e-07
2.0858661e-06
4.3646423e-05
7.7048779e-07
1.884709e-06
4.1911533e-05
6.6697375e-07
1.7037792e-06
4.0354306e-05
5.8598197e-07
1.541295e-06
3.8954268e-05
5.2230221e-07
1.3955849e-06
3.769288e-05
4.7175606e-07
1.265091e-06
3.6553576e-05
4.3107985e-07
1.1483634e-06
3.552169e-05
3.9778206e-07
1.0440533e-06
3.4584322e-05
3.6999879e-07
9.5090831e-07
3.3730181e-05
3.4635983e-07
8.6777017e-07
3.2949411e-05
3.2587757e-07
7.9356871e-07
3.2233419e-05
3.0784047e-07
7.2733486e-07
3.1574711e-05
2.9172986e-07
6.6818105e-07
3.0966769e-05
2.7719265e-07
6.153013e-07
3.0403928e-05
2.6398102e-07
5.6797017e-07
2.9881258e-05
2.5190849e-07
5.2554316e-07
2.9394455e-05
2.4082714e-07
4.8745e-07
2.8939761e-05
2.3062163e-07
4.5318328e-07
2.8513895e-05
2.2120154e-07
4.2229387e-07
2.8113985e-05
2.1249195e-07
3.9438674e-07
2.7737518e-05
2.0442798e-07
3.6911491e-07
2.7382285e-05
1.9695194e-07
3.4617387e-07
2.7046344e-05
1.9001181e-07
3.252968e-07
2.6727982e-05
1.8355995e-07
3.0625047e-07
2.6425689e-05
1.7755272e-07
2.8883089e-07
2.6138123e-05
1.7195002e-07
2.7285987e-07
2.5864094e-05
1.6671514e-07
2.5818183e-07
2.5602546e-05
1.6181454e-07
2.4466093e-07
2.535253e-05
1.5721708e-07
2.3217764e-07
2.51132e-05
1.5289443e-07
2.2062729e-07
2.4883797e-05
1.4882097e-07
2.0991776e-07
2.4663634e-05
1.4497367e-07
1.999681e-07
2.4452094e-05
1.4133184e-07
1.9070708e-07
2.4248615e-05
1.3787697e-07
1.8207152e-07
2.405269e-05
1.3459267e-07
1.7400572e-07
2.3863854e-05
1.3146462e-07
1.664599e-07
2.3681684e-05
1.2848056e-07
1.5938926e-07
2.3505794e-05
1.2562917e-07
1.5275411e-07
2.3335829e-05
1.2289868e-07
1.465197e-07
2.3171462e-05
1.2027636e-07
1.4065461e-07
2.3012394e-05
1.1775474e-07
1.3513023e-07
2.2858345e-05
1.1532968e-07
1.2992043e-07
2.2709057e-05
1.1299536e-07
1.2500175e-07
2.2564291e-05
1.1074518e-07
1.2035292e-07
2.2423824e-05
1.0857347e-07
1.159546e-07
2.2287451e-05
1.0647548e-07
1.1178923e-07
2.2154978e-05
1.0444701e-07
1.0784079e-07
2.2026226e-05
1.0248417e-07
1.0409458e-07
2.1901025e-05
1.005835e-07
1.0053716e-07
2.1779218e-05
9.874155e-08
9.7156185e-08
2.1660658e-05
9.6954896e-08
9.3940303e-08
2.1545205e-05
9.5221286e-08
9.0879046e-08
2.1432729e-05
9.3538812e-08
8.7962805e-08
2.1323107e-05
9.1905332e-08
8.5182603e-08
2.1216222e-05
9.0318521e-08
8.2530178e-08
2.1111965e-05
8.8776409e-08
7.9997885e-08
2.1010233e-05
8.7277122e-08
7.7578644e-08
2.0910927e-05
8.5818951e-08
7.5265883e-08
2.0813956e-05
8.4400317e-08
7.3053444e-08
2.0719232e-05
8.3019696e-08
7.0935649e-08
2.0626671e-05
8.1675636e-08
6.8907234e-08
2.0536195e-05
8.0366803e-08
6.6963107e-08
2.0447729e-05
7.9091952e-08
6.509874e-08
2.0361203e-05
7.7849828e-08
6.3309779e-08
2.0276548e-05
7.6639242e-08
6.1592066e-08
2.0193702e-05
7.5458996e-08
5.9941756e-08
2.0112602e-05
7.4307972e-08
5.8355241e-08
2.0033193e-05
7.3184937e-08
5.6829061e-08
1.9955419e-05
7.2088577e-08
5.5359944e-08
1.9879228e-05
7.1017639e-08
5.3944845e-08
1.9804572e-05
6.9970427e-08
5.2580739e-08
1.9731406e-05
6.8945273e-08
5.1264795e-08
1.9659685e-05
6.7940122e-08
4.9994405e-08
1.9589371e-05
6.6953017e-08
4.8767048e-08
1.9520423e-05
6.5982377e-08
4.7580532e-08
1.9452806e-05
6.5028033e-08
4.6433098e-08
1.9386482e-05
6.4094121e-08
4.5323743e-08
1.9321404e-05
6.3194679e-08
4.4253063e-08
1.9257511e-05
6.2366347e-08
4.3225216e-08
1.9194705e-05
6.1695148e-08
4.225314e-08
1.9132798e-05
6.1374073e-08
4.13774e-08
1.9071394e-05
6.1822431e-08
4.0750676e-08
1.9009424e-05
6.3924736e-08
4.105761e-08
1.8944661e-05
6.9304681e-08
4.3998826e-08
7.9170945e-08
7.4661553e-08
0.0001054937
1.9169871e-06
6.4880406e-06
0.00010005365
3.2729596e-06
6.5816334e-06
9.4926077e-05
3.8288996e-06
6.1580776e-06
8.9946373e-05
3.9838109e-06
5.9262629e-06
8.5163276e-05
3.9595077e-06
5.6547657e-06
8.0619137e-05
3.7899369e-06
5.3103784e-06
7.6329462e-05
3.5015547e-06
4.9350725e-06
7.230016e-05
3.1412013e-06
4.5559928e-06
6.8534206e-05
2.7514802e-06
4.1846641e-06
6.5032983e-05
2.3633492e-06
3.8278852e-06
6.1795789e-05
1.9984143e-06
3.490711e-06
5.8818843e-05
1.6703759e-06
3.176301e-06
5.6094717e-05
1.3858294e-06
2.886043e-06
5.3612488e-05
1.1457945e-06
2.6200649e-06
5.1358373e-05
9.476412e-07
2.3777043e-06
4.9316593e-05
7.8676783e-07
2.1578272e-06
4.7470246e-05
6.5779548e-07
1.9590391e-06
4.5802069e-05
5.5532539e-07
1.7798252e-06
4.4295042e-05
4.7437117e-07
1.6186378e-06
4.293283e-05
4.1056666e-07
1.473948e-06
4.1700078e-05
3.6023236e-07
1.3442759e-06
4.0582591e-05
3.2035745e-07
1.2282094e-06
3.956742e-05
2.8853734e-07
1.1244154e-06
3.8642881e-05
2.6289064e-07
1.0316467e-06
3.7798527e-05
2.4196984e-07
9.4874397e-07
3.7025076e-05
2.2467702e-07
8.7465167e-07
3.6314324e-05
2.1018899e-07
8.0840409e-07
3.5659057e-05
1.9788602e-07
7.4911043e-07
3.5052961e-05
1.8731583e-07
6.9597285e-07
3.4490519e-05
1.7814872e-07
6.4827379e-07
3.3966922e-05
1.7013171e-07
6.0537439e-07
3.3477973e-05
1.6306729e-07
5.6670865e-07
3.3020016e-05
1.5680298e-07
5.3177539e-07
3.2589865e-05
1.5122056e-07
5.0013242e-07
3.218474e-05
1.4622564e-07
4.713914e-07
3.1802215e-05
1.4174074e-07
4.4521234e-07
3.1440168e-05
1.3770096e-07
4.2129809e-07
3.1096739e-05
1.3405096e-07
3.9938923e-07
3.0770297e-05
1.3074296e-07
3.7925954e-07
3.0459402e-05
1.2773516e-07
3.6071198e-07
3.0162787e-05
1.2499091e-07
3.4357479e-07
2.9879325e-05
1.2247784e-07
3.2769849e-07
2.960802e-05
1.2016734e-07
3.1295273e-07
2.934798e-05
1.1803385e-07
2.9922354e-07
2.9098408e-05
1.1605465e-07
2.8641138e-07
2.885859e-05
1.1420982e-07
2.7442906e-07
2.8627882e-05
1.1248192e-07
2.6319998e-07
2.8405701e-05
1.1085559e-07
2.5265684e-07
2.819152e-05
1.0931757e-07
2.4274023e-07
2.7984859e-05
1.078565e-07
2.3339755e-07
2.7785279e-05
1.0646279e-07
2.2458211e-07
2.7592378e-05
1.051287e-07
2.1625214e-07
2.740579e-05
1.0384733e-07
2.0837036e-07
2.7225174e-05
1.0261118e-07
2.009036e-07
2.705022e-05
1.0140744e-07
1.9382257e-07
2.6880641e-05
1.0023383e-07
1.8710043e-07
2.6716166e-05
9.9092366e-08
1.8071226e-07
2.6556546e-05
9.7980007e-08
1.7463559e-07
2.6401548e-05
9.6892526e-08
1.6885014e-07
2.6250957e-05
9.5827085e-08
1.6333739e-07
2.610457e-05
9.4781692e-08
1.5808045e-07
2.5962199e-05
9.3754732e-08
1.5306362e-07
2.5823666e-05
9.2744872e-08
1.4827257e-07
2.5688804e-05
9.1751017e-08
1.4369412e-07
2.5557458e-05
9.0771783e-08
1.3931598e-07
2.5429481e-05
8.9805203e-08
1.3512694e-07
2.5304734e-05
8.8851498e-08
1.3111644e-07
2.5183087e-05
8.7911245e-08
1.2727467e-07
2.5064416e-05
8.6983943e-08
1.235924e-07
2.4948604e-05
8.6068919e-08
1.200612e-07
2.4835542e-05
8.5165804e-08
1.1667302e-07
2.4725124e-05
8.4274354e-08
1.1342046e-07
2.4617252e-05
8.33943e-08
1.1029657e-07
2.4511832e-05
8.2525493e-08
1.0729478e-07
2.4408775e-05
8.1667757e-08
1.0440898e-07
2.4307997e-05
8.0820985e-08
1.0163344e-07
2.4209416e-05
7.9985015e-08
9.8962684e-08
2.4112956e-05
7.9159741e-08
9.6391554e-08
2.4018546e-05
7.8344986e-08
9.3915302e-08
2.3926115e-05
7.7540691e-08
9.1529303e-08
2.3835598e-05
7.6746533e-08
8.9229242e-08
2.3746933e-05
7.5962315e-08
8.7011021e-08
2.3660059e-05
7.5187583e-08
8.4870676e-08
2.3574922e-05
7.4421941e-08
8.280454e-08
2.3491466e-05
7.366464e-08
8.0808936e-08
2.3409641e-05
7.2914631e-08
7.8880379e-08
2.33294e-05
7.2170701e-08
7.7015489e-08
2.3250698e-05
7.1431311e-08
7.5211003e-08
2.3173493e-05
7.0694894e-08
7.3463643e-08
2.3097745e-05
6.9960216e-08
7.1770043e-08
2.3023418e-05
6.922799e-08
7.0127013e-08
2.2950477e-05
6.8503526e-08
6.853122e-08
2.2878889e-05
6.7802886e-08
6.6979722e-08
2.2808619e-05
6.7165078e-08
6.5471588e-08
2.2739625e-05
6.6675267e-08
6.4013344e-08
2.267185e-05
6.6507068e-08
6.2642286e-08
2.2605149e-05
6.6990753e-08
6.1532351e-08
2.2538888e-05
6.8686045e-08
6.1499901e-08
2.2471121e-05
7.2226961e-08
6.4845105e-08
7.6722834e-08
9.8461303e-08
0.0001051979
1.3340884e-06
6.4961221e-06
9.9496561e-05
2.3731022e-06
6.6011947e-06
9.4262459e-05
2.9019223e-06
6.1610799e-06
8.9251186e-05
3.0856641e-06
5.9094196e-06
8.4493497e-05
3.0947347e-06
5.6224614e-06
8.0033635e-05
2.9846657e-06
5.265134e-06
7.5876907e-05
2.7790155e-06
4.8792667e-06
7.2014635e-05
2.5106843e-06
4.4927894e-06
6.8436293e-05
2.2128728e-06
4.116949e-06
6.5131387e-05
1.9107259e-06
3.7575292e-06
6.208941e-05
1.621732e-06
3.4186596e-06
5.9299432e-05
1.3573877e-06
3.1029661e-06
5.6749589e-05
1.1240344e-06
2.8116387e-06
5.4426788e-05
9.2377944e-07
2.5448157e-06
5.2316754e-05
7.5572797e-07
2.3019465e-06
5.0404313e-05
6.1717853e-07
2.0820302e-06
4.8673788e-05
5.0454349e-07
1.8837772e-06
4.7109414e-05
4.1397183e-07
1.7057274e-06
4.5695713e-05
3.4173648e-07
1.5463363e-06
4.4417792e-05
2.8445145e-07
1.4040359e-06
4.3261575e-05
2.3917112e-07
1.277278e-06
4.2213952e-05
2.0341503e-07
1.1645652e-06
4.1262871e-05
1.7514742e-07
1.0644719e-06
4.039737e-05
1.5273234e-07
9.7565898e-07
3.9607583e-05
1.3487527e-07
8.9688142e-07
3.8884688e-05
1.2055567e-07
8.2701636e-07
3.8220848e-05
1.0901088e-07
7.6501856e-07
3.7609155e-05
9.9633826e-08
7.0994487e-07
3.7043542e-05
9.1977422e-08
6.609509e-07
3.6518702e-05
8.5705811e-08
6.1728287e-07
3.6030009e-05
8.05524e-08
5.7827308e-07
3.5573433e-05
7.6308289e-08
5.4333411e-07
3.5145475e-05
7.2811268e-08
5.1195025e-07
3.4743091e-05
6.9934119e-08
4.836702e-07
3.4363641e-05
6.757542e-08
4.5810065e-07
3.4004828e-05
6.5652905e-08
4.3489996e-07
3.3664659e-05
6.4098602e-08
4.1377208e-07
3.3341393e-05
6.285591e-08
3.9446093e-07
3.3033513e-05
6.1877037e-08
3.767453e-07
3.2739693e-05
6.1121117e-08
3.6043426e-07
3.2458768e-05
6.0553078e-08
3.4536327e-07
3.2189712e-05
6.0142681e-08
3.3139055e-07
3.1931622e-05
5.9863672e-08
3.1839375e-07
3.1683696e-05
5.9693144e-08
3.0626735e-07
3.1445219e-05
5.9611237e-08
2.9492012e-07
3.1215555e-05
5.9600663e-08
2.8427317e-07
3.0994132e-05
5.9646537e-08
2.7425805e-07
3.0780436e-05
5.9736183e-08
2.6481537e-07
3.0574002e-05
5.9858689e-08
2.5589334e-07
3.0374407e-05
6.0004954e-08
2.474466e-07
3.0181267e-05
6.0167624e-08
2.3943547e-07
2.9994229e-05
6.0341278e-08
2.3182488e-07
2.9812971e-05
6.0521807e-08
2.2458375e-07
2.9637193e-05
6.0704453e-08
2.1768454e-07
2.9466629e-05
6.0867279e-08
2.1110456e-07
2.9301024e-05
6.1017003e-08
2.0482179e-07
2.914014e-05
6.1160877e-08
1.988157e-07
2.8983756e-05
6.1294961e-08
1.9306836e-07
2.8831669e-05
6.1415482e-08
1.8756387e-07
2.8683688e-05
6.1520934e-08
1.8228763e-07
2.8539633e-05
6.1610556e-08
1.7722635e-07
2.8399336e-05
6.1683766e-08
1.7236783e-07
2.8262639e-05
6.1740462e-08
1.6770088e-07
2.8129394e-05
6.1780707e-08
1.6321519e-07
2.7999461e-05
6.1803873e-08
1.5890118e-07
2.7872709e-05
6.1807375e-08
1.5475035e-07
2.7749012e-05
6.1793588e-08
1.5075444e-07
2.7628253e-05
6.1764846e-08
1.4690557e-07
2.7510319e-05
6.1721006e-08
1.4319659e-07
2.7395105e-05
6.166213e-08
1.3962084e-07
2.728251e-05
6.1588622e-08
1.36172e-07
2.7172439e-05
6.1501075e-08
1.3284421e-07
2.7064802e-05
6.1399981e-08
1.296319e-07
2.6959511e-05
6.1285963e-08
1.265299e-07
2.6856486e-05
6.1159538e-08
1.2353326e-07
2.6755649e-05
6.1021331e-08
1.206373e-07
2.6656924e-05
6.0871868e-08
1.1783767e-07
2.6560242e-05
6.0711699e-08
1.1513014e-07
2.6465535e-05
6.0541376e-08
1.1251079e-07
2.6372738e-05
6.0361315e-08
1.0997579e-07
2.6281791e-05
6.0171948e-08
1.0752157e-07
2.6192636e-05
5.9973495e-08
1.0514468e-07
2.6105215e-05
5.9766295e-08
1.0284182e-07
2.6019477e-05
5.9550213e-08
1.0060974e-07
2.5935371e-05
5.9325111e-08
9.8445297e-08
2.585285e-05
5.9090515e-08
9.6345408e-08
2.5771868e-05
5.8845523e-08
9.4306933e-08
2.5692384e-05
5.8588994e-08
9.2326756e-08
2.5614357e-05
5.831982e-08
9.0401429e-08
2.5537753e-05
5.8037098e-08
8.8527319e-08
2.5462539e-05
5.7741645e-08
8.6700206e-08
2.5388689e-05
5.7438392e-08
8.4915172e-08
2.5316184e-05
5.7141422e-08
8.3166662e-08
2.5245017e-05
5.6882577e-08
8.144963e-08
2.51752e-05
5.6726023e-08
7.9765821e-08
2.510677e-05
5.6787911e-08
7.8149171e-08
2.5039729e-05
5.7251601e-08
7.6780978e-08
2.4973573e-05
5.8330945e-08
7.6510199e-08
2.4906079e-05
5.99895e-08
7.9732159e-08
6.0715006e-08
1.1287824e-07
0.00010503672
9.0789369e-07
6.5005614e-06
9.9140653e-05
1.6524914e-06
6.6166802e-06
9.3788329e-05
2.0825241e-06
6.1717217e-06
8.8708526e-05
2.2549373e-06
5.91053e-06
8.3909682e-05
2.2784039e-06
5.6151748e-06
7.9437109e-05
2.2074821e-06
5.2497564e-06
7.5296201e-05
2.0645348e-06
4.8553893e-06
7.1474034e-05
1.8722543e-06
4.460597e-06
6.7955013e-05
1.6547667e-06
4.077127e-06
6.4723621e-05
1.4313505e-06
3.7107669e-06
6.1764423e-05
1.2154298e-06
3.3655007e-06
5.9062056e-05
1.015864e-06
3.0438911e-06
5.6601108e-05
8.3782743e-07
2.7471548e-06
5.4365944e-05
6.8344646e-07
2.475497e-06
5.2340648e-05
5.5258528e-07
2.2284384e-06
5.0509125e-05
4.4366547e-07
2.0050361e-06
4.8855299e-05
3.5433455e-07
1.8040351e-06
4.7363353e-05
2.8193591e-07
1.6239821e-06
4.6017963e-05
2.2381349e-07
1.4633127e-06
4.4804502e-05
1.7749383e-07
1.3204181e-06
4.3709199e-05
1.4078088e-07
1.1936935e-06
4.2719248e-05
1.1179154e-07
1.081575e-06
4.1822875e-05
8.8954548e-08
9.8256586e-07
4.1009364e-05
7.0987998e-08
8.9525474e-07
4.0269054e-05
5.6861841e-08
8.1832381e-07
3.9593306e-05
4.57191e-08
7.5058477e-07
3.8974405e-05
3.6977847e-08
6.9093441e-07
3.8405585e-05
3.0067346e-08
6.3838633e-07
3.7880869e-05
2.4650817e-08
5.9204238e-07
3.7395029e-05
2.0439958e-08
5.5110604e-07
3.6943514e-05
1.7190244e-08
5.1487714e-07
3.6522366e-05
1.4716746e-08
4.8273957e-07
3.6128148e-05
1.2874786e-08
4.5415389e-07
3.5757883e-05
1.1549905e-08
4.2864941e-07
3.5408991e-05
1.0650789e-08
4.0581704e-07
3.5079238e-05
1.0103641e-08
3.8530226e-07
3.4766689e-05
9.8482616e-09
3.6679878e-07
3.4469668e-05
9.8351225e-09
3.5004232e-07
3.4186716e-05
1.0022922e-08
3.3480551e-07
3.3916567e-05
1.037703e-08
3.2089286e-07
3.3658116e-05
1.0868067e-08
3.081366e-07
3.3410395e-05
1.1470981e-08
2.9639285e-07
3.3172556e-05
1.2164228e-08
2.8553827e-07
3.2943853e-05
1.2929299e-08
2.7546719e-07
3.2723625e-05
1.3750183e-08
2.6608892e-07
3.2511286e-05
1.4613071e-08
2.573257e-07
3.2306316e-05
1.5506269e-08
2.4911069e-07
3.2108246e-05
1.641962e-08
2.4138622e-07
3.1916658e-05
1.7344633e-08
2.3410267e-07
3.1731171e-05
1.827433e-08
2.2721712e-07
3.1551444e-05
1.9203141e-08
2.2069216e-07
3.1377162e-05
2.0127714e-08
2.1449505e-07
3.1208038e-05
2.104867e-08
2.0859679e-07
3.10438e-05
2.1972789e-08
2.0297055e-07
3.0884232e-05
2.2827848e-08
1.9760737e-07
3.0729103e-05
2.3662962e-08
1.9248227e-07
3.05782e-05
2.4490009e-08
1.8757378e-07
3.0431331e-05
2.5296273e-08
1.8286758e-07
3.0288318e-05
2.6077989e-08
1.7835074e-07
3.0148994e-05
2.6834299e-08
1.7401106e-07
3.0013202e-05
2.7564668e-08
1.6983753e-07
2.9880797e-05
2.826894e-08
1.6582023e-07
2.975164e-05
2.8947431e-08
1.6195015e-07
2.9625601e-05
2.9600798e-08
1.5821897e-07
2.9502557e-05
3.0228543e-08
1.5461919e-07
2.9382396e-05
3.0823593e-08
1.5114464e-07
2.9265007e-05
3.1393147e-08
1.4778878e-07
2.9150287e-05
3.1939629e-08
1.4454536e-07
2.9038137e-05
3.2461899e-08
1.4140901e-07
2.8928465e-05
3.2960072e-08
1.3837462e-07
2.8821181e-05
3.3434717e-08
1.3543747e-07
2.8716203e-05
3.3886341e-08
1.3259328e-07
2.8613449e-05
3.4315563e-08
1.2983786e-07
2.8512845e-05
3.4722922e-08
1.2716736e-07
2.8414317e-05
3.5109002e-08
1.2457813e-07
2.8317797e-05
3.5474466e-08
1.2206679e-07
2.8223219e-05
3.5819896e-08
1.196301e-07
2.813052e-05
3.6145897e-08
1.1726493e-07
2.803964e-05
3.6453052e-08
1.149684e-07
2.7950522e-05
3.6741898e-08
1.1273774e-07
2.7863111e-05
3.7012798e-08
1.1057025e-07
2.7777354e-05
3.7266256e-08
1.0846344e-07
2.7693204e-05
3.7502482e-08
1.0641476e-07
2.761061e-05
3.7721619e-08
1.0442175e-07
2.752953e-05
3.792357e-08
1.0248203e-07
2.744992e-05
3.8107994e-08
1.0059307e-07
2.7371738e-05
3.8274282e-08
9.8752291e-08
2.7294949e-05
3.8421548e-08
9.6956912e-08
2.7219516e-05
3.8548719e-08
9.5203627e-08
2.714541e-05
3.8655113e-08
9.3488614e-08
2.7072603e-05
3.8741123e-08
9.1806952e-08
2.7001079e-05
3.8810272e-08
9.0152309e-08
2.6930832e-05
3.8872156e-08
8.851658e-08
2.6861876e-05
3.8947403e-08
8.6890531e-08
2.679426e-05
3.9073523e-08
8.5269181e-08
2.6728065e-05
3.9306963e-08
8.3675928e-08
2.6663337e-05
3.9708337e-08
8.2271149e-08
2.659956e-05
4.0272008e-08
8.1836182e-08
2.6534295e-05
4.0698036e-08
8.4555715e-08
3.9620873e-08
1.1507131e-07
0.00010494757
5.6811079e-07
6.5033076e-06
9.8925416e-05
1.0462983e-06
6.6283516e-06
9.3480449e-05
1.3439844e-06
6.1835065e-06
8.8341777e-05
1.4751323e-06
5.9184763e-06
8.3502084e-05
1.4993911e-06
5.6187065e-06
7.9004057e-05
1.4572411e-06
5.2482679e-06
7.4853978e-05
1.3667382e-06
4.8478757e-06
7.1037378e-05
1.2423973e-06
4.4464569e-06
6.7536062e-05
1.0997693e-06
4.0563127e-06
6.4331998e-05
9.5192361e-07
3.683491e-06
6.1407318e-05
8.0805755e-07
3.3320524e-06
5.8744339e-05
6.7422203e-07
3.0046209e-06
5.6325632e-05
5.5404397e-07
2.7024907e-06
5.4133973e-05
4.4916748e-07
2.4259383e-06
5.2152298e-05
3.5972401e-07
2.174536e-06
5.0363747e-05
2.8484511e-07
1.9473717e-06
4.875178e-05
2.2310004e-07
1.7432015e-06
4.7300339e-05
1.7281167e-07
1.5605647e-06
4.5994012e-05
1.3226573e-07
1.3978748e-06
4.4818177e-05
9.9840023e-08
1.2534891e-06
4.3759121e-05
7.4075591e-08
1.1257614e-06
4.2804123e-05
5.370762e-08
1.0130814e-06
4.1941503e-05
3.7671219e-08
9.1390376e-07
4.1160627e-05
2.509646e-08
8.2676733e-07
4.0451891e-05
1.5294153e-08
7.5030387e-07
3.980679e-05
7.5281408e-09
6.8329174e-07
3.9217543e-05
1.6727227e-09
6.24552e-07
3.8677513e-05
-3.0331475e-09
5.7313082e-07
3.8180739e-05
-6.648716e-09
5.2807354e-07
3.7722004e-05
-9.3595322e-09
4.8853451e-07
3.7296777e-05
-1.1371806e-08
4.5378928e-07
3.6901112e-05
-1.2818245e-08
4.2319912e-07
3.6531588e-05
-1.38053e-08
3.962048e-07
3.6185236e-05
-1.4417484e-08
3.7231874e-07
3.5859491e-05
-1.472186e-08
3.5111775e-07
3.5552132e-05
-1.4772598e-08
3.3223579e-07
3.5261237e-05
-1.4613895e-08
3.1535729e-07
3.4985143e-05
-1.4282171e-08
3.0021091e-07
3.472241e-05
-1.380769e-08
2.8656378e-07
3.4471787e-05
-1.3215887e-08
2.7421631e-07
3.4232185e-05
-1.2528186e-08
2.6299768e-07
3.4002657e-05
-1.1762799e-08
2.5276173e-07
3.3782373e-05
-1.0935242e-08
2.4338337e-07
3.3570606e-05
-1.0058757e-08
2.3475557e-07
3.3366714e-05
-9.1447232e-09
2.2678674e-07
3.3170132e-05
-8.202778e-09
2.1939835e-07
3.2980356e-05
-7.2412111e-09
2.1252302e-07
3.279694e-05
-6.2668862e-09
2.0610283e-07
3.2619482e-05
-5.2855329e-09
2.0008787e-07
3.2447623e-05
-4.3018234e-09
1.9443481e-07
3.228104e-05
-3.3190486e-09
1.8910585e-07
3.2119438e-05
-2.3383114e-09
1.8406732e-07
3.1962554e-05
-1.3530449e-09
1.7928646e-07
3.1810075e-05
-2.7632012e-10
1.7472767e-07
3.1661878e-05
5.8583291e-10
1.7043904e-07
3.1517732e-05
1.4356275e-09
1.6637294e-07
3.1377429e-05
2.3038124e-09
1.6248958e-07
3.1240792e-05
3.1586394e-09
1.5877484e-07
3.1107656e-05
3.9969768e-09
1.5521718e-07
3.0977867e-05
4.8171715e-09
1.5180545e-07
3.0851284e-05
5.6179653e-09
1.4852967e-07
3.0727774e-05
6.399012e-09
1.4538075e-07
3.0607209e-05
7.1609414e-09
1.4235055e-07
3.0489473e-05
7.9059391e-09
1.394312e-07
3.037445e-05
8.635754e-09
1.3661579e-07
3.0262049e-05
9.3206295e-09
1.3390398e-07
3.0152163e-05
9.9937993e-09
1.3128564e-07
3.0044697e-05
1.0650387e-08
1.2875511e-07
2.9939564e-05
1.1286748e-08
1.263083e-07
2.983668e-05
1.1903234e-08
1.2394089e-07
2.9735965e-05
1.2500163e-08
1.2164884e-07
2.9637345e-05
1.3077908e-08
1.1942844e-07
2.9540748e-05
1.3636721e-08
1.1727618e-07
2.9446105e-05
1.4177016e-08
1.1518883e-07
2.9353352e-05
1.469917e-08
1.1316335e-07
2.9262425e-05
1.520354e-08
1.1119701e-07
2.9173268e-05
1.5690497e-08
1.0928709e-07
2.9085822e-05
1.6160383e-08
1.0743108e-07
2.9000035e-05
1.6613573e-08
1.0562665e-07
2.8915855e-05
1.7050407e-08
1.0387153e-07
2.8833233e-05
1.7471121e-08
1.0216362e-07
2.8752123e-05
1.7875961e-08
1.0050081e-07
2.8672479e-05
1.8265095e-08
9.8881127e-08
2.8594259e-05
1.8638573e-08
9.7302504e-08
2.8517424e-05
1.8996252e-08
9.5762967e-08
2.8441934e-05
1.9337826e-08
9.4260345e-08
2.8367753e-05
1.9662804e-08
9.2792335e-08
2.8294848e-05
1.9970484e-08
9.1356266e-08
2.8223187e-05
2.0259988e-08
8.994886e-08
2.8152746e-05
2.0530712e-08
8.8565935e-08
2.8083503e-05
2.0782605e-08
8.7201781e-08
2.8015447e-05
2.1017512e-08
8.5848685e-08
2.7948582e-05
2.1240699e-08
8.4495801e-08
2.7882937e-05
2.1462733e-08
8.3129504e-08
2.7818574e-05
2.1699967e-08
8.17365e-08
2.7755588e-05
2.196927e-08
8.0324345e-08
2.7694014e-05
2.2266138e-08
7.9016078e-08
2.7633299e-05
2.2506274e-08
7.8480631e-08
2.7571004e-05
2.2393398e-08
8.0599435e-08
2.0993061e-08
1.0779944e-07
0.00010489986
2.7443378e-07
6.5049155e-06
9.8802772e-05
5.0716635e-07
6.6362236e-06
9.329591e-05
6.5854975e-07
6.1922972e-06
8.8116302e-05
7.2902545e-07
5.9257148e-06
8.3248198e-05