/*--------------------------------*- C++ -*----------------------------------*\
  =========                 |
  \\      /  F ield         | OpenFOAM: The Open Source CFD Toolbox
   \\    /   O peration     | Website:  https://openfoam.org
    \\  /    A nd           | Version:  7
     \\/     M anipulation  |
\*---------------------------------------------------------------------------*/
FoamFile
{
    version     2.0;
    format      ascii;
    class       volVectorField;
    location    "1950/water";
    object      U;
}
// * * * * * * * * * * * * * * * * * * * * * * * * * * * * * * * * * * * * * //

dimensions      [0 1 -1 0 0 0 0];

internalField   nonuniform List<vector> 
54000
(
(0.0090020934 0.00020305973 0.00020444027)
(0.0083186447 0.00023622738 0.00023904411)
(0.0073695241 0.00021363852 0.00021763527)
(0.0063566114 0.00018488016 0.00018965819)
(0.0054486673 0.00015530835 0.00016048633)
(0.0046741594 0.00012529952 0.00013052937)
(0.0040193038 9.7052612e-05 0.00010203017)
(0.0034740067 7.2578999e-05 7.7073287e-05)
(0.0030302461 5.2876126e-05 5.6738329e-05)
(0.0026757323 3.806815e-05 4.1216513e-05)
(0.0023947254 2.7637703e-05 3.0037141e-05)
(0.0021713898 2.0689034e-05 2.2336509e-05)
(0.0019919695 1.6236161e-05 1.7152704e-05)
(0.0018455015 1.3416236e-05 1.3643173e-05)
(0.0017237326 1.1582489e-05 1.1179122e-05)
(0.0016206928 1.0304892e-05 9.3455812e-06)
(0.0015321593 9.3257913e-06 7.8957153e-06)
(0.0014551546 8.5052961e-06 6.6953107e-06)
(0.0013875459 7.7746337e-06 5.6760579e-06)
(0.0013277612 7.1034288e-06 4.8034861e-06)
(0.001274601 6.4798511e-06 4.058157e-06)
(0.0012271179 5.8999466e-06 3.4261582e-06)
(0.0011845424 5.3625298e-06 2.8950711e-06)
(0.001146235 4.8670213e-06 2.4526296e-06)
(0.0011116558 4.4126e-06 2.0869758e-06)
(0.0010803434 3.9980134e-06 1.7867449e-06)
(0.0010519002 3.6214608e-06 1.5416122e-06)
(0.0010259819 3.2805934e-06 1.3421851e-06)
(0.001002289 2.9733945e-06 1.1797307e-06)
(0.00098056199 2.6979494e-06 1.0463204e-06)
(0.00096057571 2.4519212e-06 9.365896e-07)
(0.00094213242 2.2325664e-06 8.4693351e-07)
(0.00092505792 2.037387e-06 7.7316622e-07)
(0.00090920047 1.8640894e-06 7.1184192e-07)
(0.00089442818 1.7104625e-06 6.6046724e-07)
(0.0008806259 1.5743827e-06 6.17073e-07)
(0.00086769294 1.4538618e-06 5.8005352e-07)
(0.00085554128 1.3470711e-06 5.481154e-07)
(0.00084409387 1.2523499e-06 5.2023953e-07)
(0.00083328322 1.1681987e-06 4.9562871e-07)
(0.00082305015 1.0932623e-06 4.736531e-07)
(0.00081334267 1.0262305e-06 4.5378276e-07)
(0.00080411486 9.6585811e-07 4.3554442e-07)
(0.00079532615 9.113103e-07 4.1864997e-07)
(0.0007869407 8.6191696e-07 4.029064e-07)
(0.00077892675 8.1708229e-07 3.8816787e-07)
(0.00077125603 7.7627612e-07 3.7431993e-07)
(0.0007639033 7.3902515e-07 3.6127583e-07)
(0.00075684598 7.0491393e-07 3.4896409e-07)
(0.00075006373 6.7357478e-07 3.3733107e-07)
(0.00074353822 6.4469485e-07 3.2633637e-07)
(0.00073725294 6.1802534e-07 3.158181e-07)
(0.00073119314 5.9334737e-07 3.057435e-07)
(0.00072534528 5.7041979e-07 2.9621052e-07)
(0.00071969687 5.4902532e-07 2.8716644e-07)
(0.00071423653 5.2901488e-07 2.7854235e-07)
(0.00070895386 5.1027359e-07 2.703113e-07)
(0.00070383928 4.9268669e-07 2.6244852e-07)
(0.00069888397 4.7614432e-07 2.5493236e-07)
(0.00069407976 4.6055051e-07 2.477434e-07)
(0.00068941911 4.4582114e-07 2.4086378e-07)
(0.00068489502 4.3188546e-07 2.3427591e-07)
(0.00068050098 4.1867983e-07 2.2796415e-07)
(0.00067623091 4.0614732e-07 2.2191191e-07)
(0.00067207915 3.942348e-07 2.1610525e-07)
(0.00066804042 3.8289778e-07 2.1053094e-07)
(0.00066410976 3.7209482e-07 2.0517669e-07)
(0.00066028251 3.6179432e-07 2.0003302e-07)
(0.00065655429 3.519629e-07 1.9508242e-07)
(0.00065292099 3.425691e-07 1.9031821e-07)
(0.00064937872 3.3358601e-07 1.8572869e-07)
(0.00064592384 3.2498774e-07 1.81306e-07)
(0.00064255288 3.1675227e-07 1.7704022e-07)
(0.00063926261 3.0885648e-07 1.7292494e-07)
(0.00063604992 3.0128242e-07 1.6895093e-07)
(0.00063291192 2.9401254e-07 1.6511088e-07)
(0.00062984583 2.8703006e-07 1.6139764e-07)
(0.00062684904 2.8032051e-07 1.5780294e-07)
(0.00062391907 2.738707e-07 1.5432058e-07)
(0.00062105358 2.6766532e-07 1.5094256e-07)
(0.00061825035 2.6169506e-07 1.4766097e-07)
(0.00061550726 2.559452e-07 1.4447012e-07)
(0.00061282235 2.5040664e-07 1.4135991e-07)
(0.00061019373 2.4506942e-07 1.3832446e-07)
(0.00060761964 2.3991963e-07 1.3535614e-07)
(0.00060509845 2.349457e-07 1.324488e-07)
(0.00060262862 2.3013381e-07 1.2959816e-07)
(0.00060020873 2.2546939e-07 1.2680479e-07)
(0.00059783744 2.2093223e-07 1.2407573e-07)
(0.00059551348 2.1649814e-07 1.2143358e-07)
(0.00059323555 2.1214991e-07 1.1892923e-07)
(0.00059100214 2.0787274e-07 1.1666204e-07)
(0.00058881114 2.0369091e-07 1.1483022e-07)
(0.00058665898 1.9973102e-07 1.1382037e-07)
(0.00058453869 1.9638401e-07 1.1441029e-07)
(0.00058243501 1.9487194e-07 1.1837341e-07)
(0.00058031396 1.9977434e-07 1.3094377e-07)
(0.0005781161 2.2258557e-07 1.6397625e-07)
(0.00057566369 1.9706995e-07 1.5080614e-07)
(0.00056906201 7.8896478e-07 7.5322554e-07)
(0.0095316863 0.0003313754 0.00022336697)
(0.0092716504 0.00041105943 0.00027052342)
(0.0087756651 0.00040317187 0.00026060063)
(0.0081527518 0.00038218754 0.00024252081)
(0.0075302151 0.00035309575 0.00022101125)
(0.0069425889 0.00031541062 0.00019648834)
(0.006391209 0.00027309198 0.00017102969)
(0.0058791845 0.00023030694 0.00014652546)
(0.0054120202 0.00019001855 0.00012410997)
(0.0049926512 0.00015423459 0.00010436627)
(0.004620592 0.00012408347 8.7479018e-05)
(0.0042931332 9.9809402e-05 7.3327496e-05)
(0.0040063965 8.0956423e-05 6.1601504e-05)
(0.0037559538 6.6672209e-05 5.1918794e-05)
(0.0035372541 5.59858e-05 4.3907444e-05)
(0.003345947 4.7992057e-05 3.7246645e-05)
(0.0031780884 4.194171e-05 3.1677529e-05)
(0.0030302311 3.7262446e-05 2.699792e-05)
(0.0028994324 3.3540997e-05 2.3051139e-05)
(0.0027832152 3.0490245e-05 1.9714593e-05)
(0.0026795075 2.7915737e-05 1.6890543e-05)
(0.0025865783 2.5687843e-05 1.4499382e-05)
(0.002502978 2.3720892e-05 1.2475015e-05)
(0.0024274871 2.195843e-05 1.0761725e-05)
(0.0023590736 2.0362994e-05 9.3122318e-06)
(0.0022968589 1.8909454e-05 8.0861288e-06)
(0.0022400906 1.7580768e-05 7.0489624e-06)
(0.0021881216 1.6364898e-05 6.1714975e-06)
(0.0021403932 1.5251962e-05 5.4283136e-06)
(0.0020964214 1.4233849e-05 4.7973495e-06)
(0.0020557868 1.330304e-05 4.2604814e-06)
(0.0020181236 1.2451985e-05 3.8027036e-06)
(0.0019831119 1.1673908e-05 3.4109603e-06)
(0.0019504718 1.0962756e-05 3.0744207e-06)
(0.0019199589 1.0312853e-05 2.7842603e-06)
(0.0018913593 9.7188336e-06 2.5331801e-06)
(0.0018644851 9.1756445e-06 2.3150736e-06)
(0.0018391716 8.6785726e-06 2.1248315e-06)
(0.0018152735 8.223243e-06 1.9581839e-06)
(0.0017926629 7.8056208e-06 1.811568e-06)
(0.0017712268 7.4219979e-06 1.6820111e-06)
(0.001750865 7.0689379e-06 1.5670696e-06)
(0.0017314886 6.7432679e-06 1.4647429e-06)
(0.0017130186 6.4422721e-06 1.3732755e-06)
(0.0016953848 6.1635569e-06 1.2911589e-06)
(0.0016785241 5.904977e-06 1.2171194e-06)
(0.00166238 5.6646092e-06 1.1500844e-06)
(0.0016469019 5.4407236e-06 1.0891494e-06)
(0.001632044 5.2317766e-06 1.033553e-06)
(0.0016177649 5.0363837e-06 9.8265443e-07)
(0.0016040271 4.8533241e-06 9.3589398e-07)
(0.0015907965 4.6815626e-06 8.9273676e-07)
(0.0015780424 4.5201578e-06 8.5278628e-07)
(0.0015657364 4.3681534e-06 8.1576973e-07)
(0.0015538526 4.2246831e-06 7.8138518e-07)
(0.0015423672 4.0890593e-06 7.4934434e-07)
(0.0015312583 3.9607286e-06 7.1941245e-07)
(0.0015205058 3.8391515e-06 6.9138702e-07)
(0.0015100909 3.7238126e-06 6.6509477e-07)
(0.0014999963 3.6142441e-06 6.4037996e-07)
(0.0014902061 3.5100305e-06 6.1710861e-07)
(0.0014807053 3.4107993e-06 5.9516063e-07)
(0.00147148 3.3162125e-06 5.7442795e-07)
(0.0014625175 3.22596e-06 5.548148e-07)
(0.0014538055 3.1397546e-06 5.3623546e-07)
(0.0014453328 3.0573356e-06 5.1861348e-07)
(0.0014370889 2.9784706e-06 5.0187834e-07)
(0.0014290637 2.9029585e-06 4.8596757e-07)
(0.001421248 2.8306036e-06 4.7082305e-07)
(0.001413633 2.7612179e-06 4.5639311e-07)
(0.0014062104 2.694634e-06 4.4262837e-07)
(0.0013989723 2.6306911e-06 4.2948728e-07)
(0.0013919116 2.5692461e-06 4.1693045e-07)
(0.0013850211 2.5101634e-06 4.0492048e-07)
(0.0013782945 2.4533179e-06 3.9342493e-07)
(0.0013717253 2.3985945e-06 3.8241255e-07)
(0.0013653078 2.3458835e-06 3.7185206e-07)
(0.0013590364 2.2950848e-06 3.6171847e-07)
(0.0013529058 2.2461034e-06 3.5198485e-07)
(0.001346911 2.1988501e-06 3.426272e-07)
(0.0013410472 2.1532424e-06 3.3362061e-07)
(0.0013353099 2.1091962e-06 3.2494634e-07)
(0.001329695 2.0666366e-06 3.1657901e-07)
(0.0013241983 2.0254879e-06 3.0850024e-07)
(0.001318816 1.9856728e-06 3.0069041e-07)
(0.0013135446 1.9471125e-06 2.9313057e-07)
(0.0013083808 1.9097254e-06 2.8580457e-07)
(0.0013033213 1.8734233e-06 2.7870175e-07)
(0.0012983632 1.8381163e-06 2.718162e-07)
(0.0012935038 1.8037144e-06 2.6515391e-07)
(0.0012887402 1.7701708e-06 2.5874266e-07)
(0.0012840698 1.7375337e-06 2.5264965e-07)
(0.0012794889 1.7061223e-06 2.4701371e-07)
(0.0012749925 1.6769087e-06 2.4211438e-07)
(0.001270572 1.6524671e-06 2.3851883e-07)
(0.0012662098 1.6393322e-06 2.3766003e-07)
(0.0012618709 1.6545757e-06 2.4458333e-07)
(0.0012574959 1.7463727e-06 2.7712548e-07)
(0.0012529717 2.0376723e-06 2.6526426e-07)
(0.0012433358 2.9514836e-06 1.352534e-06)
(0.0095221617 0.00021179965 0.00022180582)
(0.009269783 0.00029872516 0.00026628967)
(0.0088657772 0.00031669844 0.00025526743)
(0.0083755729 0.000317438 0.00023864265)
(0.0078888426 0.00030841043 0.00021987851)
(0.0074276349 0.00028848207 0.00019850458)
(0.006988258 0.00026048391 0.00017617916)
(0.0065698164 0.00022855168 0.00015444521)
(0.0061756011 0.00019596771 0.00013413534)
(0.0058087146 0.00016504408 0.00011567593)
(0.0054706295 0.00013728621 9.9270839e-05)
(0.0051615551 0.00011345265 8.494783e-05)
(0.0048808654 9.3684507e-05 7.2600738e-05)
(0.0046272998 7.7712988e-05 6.2044901e-05)
(0.0043991196 6.5057025e-05 5.3064543e-05)
(0.0041942886 5.5163888e-05 4.544363e-05)
(0.0040106431 4.7493346e-05 3.8982753e-05)
(0.0038460219 4.1561377e-05 3.350638e-05)
(0.0036983537 3.6958194e-05 2.8864074e-05)
(0.0035657105 3.3351174e-05 2.4928486e-05)
(0.0034463343 3.0479503e-05 2.1592134e-05)
(0.003338646 2.8144769e-05 1.8764099e-05)
(0.003241243 2.6200154e-05 1.6367139e-05)
(0.0031528887 2.4539751e-05 1.4335369e-05)
(0.0030724986 2.3088867e-05 1.2612489e-05)
(0.0029991252 2.1796111e-05 1.1150134e-05)
(0.0029319421 2.0626905e-05 9.9064819e-06)
(0.0028702292 1.9558164e-05 8.8458157e-06)
(0.0028133589 1.8574038e-05 7.9385385e-06)
(0.0027607855 1.7663623e-05 7.1598225e-06)
(0.0027120345 1.6818833e-05 6.4890358e-06)
(0.0026666927 1.6033066e-05 5.9090207e-06)
(0.0026243991 1.5301096e-05 5.4052725e-06)
(0.0025848382 1.461882e-05 4.9656527e-06)
(0.0025477347 1.3982712e-05 4.5801143e-06)
(0.0025128472 1.3389544e-05 4.2403272e-06)
(0.002479964 1.2836281e-05 3.9393571e-06)
(0.0024488994 1.232006e-05 3.6714259e-06)
(0.0024194896 1.1838145e-05 3.4317275e-06)
(0.00239159 1.1387939e-05 3.2162525e-06)
(0.0023650729 1.0966984e-05 3.0216614e-06)
(0.0023398248 1.0572998e-05 2.8451736e-06)
(0.0023157449 1.0203874e-05 2.6844749e-06)
(0.0022927433 9.8575803e-06 2.5375944e-06)
(0.0022707398 9.5322158e-06 2.4028648e-06)
(0.002249662 9.2260288e-06 2.2788674e-06)
(0.0022294453 8.9374193e-06 2.1643994e-06)
(0.0022100312 8.6649289e-06 2.0584384e-06)
(0.0021913666 8.407238e-06 1.9601007e-06)
(0.0021734038 8.1631544e-06 1.8686321e-06)
(0.0021560989 7.9316225e-06 1.7833674e-06)
(0.0021394122 7.7117238e-06 1.7037083e-06)
(0.0021233074 7.5026027e-06 1.6291512e-06)
(0.0021077512 7.3033783e-06 1.5592838e-06)
(0.0020927129 7.113188e-06 1.4937198e-06)
(0.0020781645 6.9314149e-06 1.432105e-06)
(0.0020640799 6.757605e-06 1.3741141e-06)
(0.0020504351 6.5912608e-06 1.319462e-06)
(0.0020372075 6.4318798e-06 1.2678957e-06)
(0.0020243766 6.2790066e-06 1.2191875e-06)
(0.0020119231 6.1322413e-06 1.1731319e-06)
(0.001999829 5.9912206e-06 1.1295432e-06)
(0.0019880776 5.8556108e-06 1.0882498e-06)
(0.0019766531 5.7251041e-06 1.0490959e-06)
(0.0019655411 5.5994081e-06 1.0119387e-06)
(0.0019547276 5.4782448e-06 9.7664732e-07)
(0.0019441999 5.3613905e-06 9.4310107e-07)
(0.0019339458 5.2486483e-06 9.1118948e-07)
(0.0019239539 5.1398194e-06 8.8080755e-07)
(0.0019142135 5.0347024e-06 8.5186025e-07)
(0.0019047144 4.93312e-06 8.2425965e-07)
(0.001895447 4.8349006e-06 7.9792488e-07)
(0.0018864023 4.7398899e-06 7.7278093e-07)
(0.0018775718 4.6479434e-06 7.487568e-07)
(0.0018689473 4.558923e-06 7.2578786e-07)
(0.0018605211 4.4726998e-06 7.0381495e-07)
(0.0018522861 4.3891526e-06 6.8277715e-07)
(0.0018442353 4.3081688e-06 6.6262483e-07)
(0.0018363621 4.2296378e-06 6.4330836e-07)
(0.0018286604 4.1534583e-06 6.2477774e-07)
(0.0018211241 4.0795292e-06 6.0698914e-07)
(0.0018137478 4.007754e-06 5.8990115e-07)
(0.0018065261 3.9380366e-06 5.7347292e-07)
(0.001799454 3.8702778e-06 5.5766629e-07)
(0.0017925266 3.8043816e-06 5.424473e-07)
(0.0017857396 3.7402359e-06 5.2777898e-07)
(0.0017790885 3.6777273e-06 5.1362934e-07)
(0.0017725695 3.6167261e-06 4.9997042e-07)
(0.0017661787 3.5571075e-06 4.8677527e-07)
(0.0017599128 3.4987617e-06 4.7402493e-07)
(0.0017537682 3.4416542e-06 4.6170986e-07)
(0.0017477416 3.3859637e-06 4.498358e-07)
(0.0017418294 3.3323828e-06 4.3844222e-07)
(0.0017360272 3.2827915e-06 4.2764596e-07)
(0.0017303281 3.241777e-06 4.1776837e-07)
(0.0017247202 3.2200411e-06 4.0999083e-07)
(0.001719183 3.2421555e-06 4.0985008e-07)
(0.001713691 3.3643445e-06 4.4114425e-07)
(0.0017081999 3.7072194e-06 4.7353347e-07)
(0.0016974804 4.4611211e-06 1.8634994e-06)
(0.0095012861 0.00013951169 0.00022248511)
(0.0092133349 0.00022408324 0.00026709763)
(0.0088018509 0.00025700941 0.00025529581)
(0.0083306071 0.00026690691 0.0002382081)
(0.0078754299 0.00026502159 0.00021939836)
(0.0074527063 0.0002529565 0.00019823245)
(0.0070564396 0.00023295893 0.00017634609)
(0.0066827538 0.00020836345 0.0001552305)
(0.006331873 0.00018203353 0.00013558338)
(0.0060047052 0.00015603739 0.00011769036)
(0.0057015056 0.00013180401 0.00010166909)
(0.0054220192 0.00011020724 8.7524313e-05)
(0.0051656909 9.1631899e-05 7.5171986e-05)
(0.0049316845 7.6091186e-05 6.4472617e-05)
(0.0047188814 6.3363143e-05 5.5261149e-05)
(0.0045259349 5.3104941e-05 4.736682e-05)
(0.0043513547 4.4932757e-05 4.0624899e-05)
(0.0041935865 3.847136e-05 3.4883032e-05)
(0.0040510752 3.3381245e-05 3.0003995e-05)
(0.0039223115 2.9370508e-05 2.5866182e-05)
(0.0038058643 2.6197262e-05 2.2362868e-05)
(0.0037004012 2.3666732e-05 1.9400963e-05)
(0.0036047 2.1625757e-05 1.6899611e-05)
(0.0035176529 1.9956325e-05 1.4788824e-05)
(0.0034382652 1.8569047e-05 1.3008103e-05)
(0.0033656513 1.739736e-05 1.1504744e-05)
(0.0032990266 1.6392003e-05 1.0233523e-05)
(0.0032376995 1.5516241e-05 9.1565346e-06)
(0.0031810636 1.4743888e-05 8.2421128e-06)
(0.0031285885 1.4056153e-05 7.4635746e-06)
(0.0030798115 1.3438895e-05 6.79852e-06)
(0.0030343294 1.2881152e-05 6.2282216e-06)
(0.0029917905 1.2374497e-05 5.7369821e-06)
(0.0029518882 1.1912421e-05 5.3116665e-06)
(0.0029143553 1.1489692e-05 4.9413548e-06)
(0.0028789586 1.1101929e-05 4.6170015e-06)
(0.0028454946 1.074538e-05 4.3311222e-06)
(0.0028137847 1.0416776e-05 4.0775284e-06)
(0.0027836727 1.0113219e-05 3.8511083e-06)
(0.0027550209 9.8321205e-06 3.6476463e-06)
(0.0027277081 9.571159e-06 3.4636648e-06)
(0.002701627 9.328249e-06 3.2963005e-06)
(0.0026766823 9.1015157e-06 3.1431921e-06)
(0.0026527895 8.8892442e-06 3.0023831e-06)
(0.0026298729 8.6898927e-06 2.8722562e-06)
(0.0026078648 8.5020893e-06 2.751471e-06)
(0.002586704 8.3246175e-06 2.6389097e-06)
(0.0025663358 8.1563968e-06 2.5336415e-06)
(0.0025467102 7.9964766e-06 2.4348849e-06)
(0.002527782 7.8440274e-06 2.3419785e-06)
(0.0025095101 7.6983373e-06 2.2543609e-06)
(0.0024918566 7.5588093e-06 2.1715445e-06)
(0.0024747871 7.4248973e-06 2.0931126e-06)
(0.0024582699 7.2960211e-06 2.0187198e-06)
(0.0024422756 7.1714388e-06 1.9480692e-06)
(0.0024267775 7.0509282e-06 1.880899e-06)
(0.0024117506 6.9343771e-06 1.8169531e-06)
(0.0023971715 6.8214896e-06 1.7560024e-06)
(0.0023830185 6.7119563e-06 1.6978522e-06)
(0.0023692714 6.6055384e-06 1.6423274e-06)
(0.0023559116 6.5020447e-06 1.5892722e-06)
(0.0023429214 6.4013086e-06 1.5385379e-06)
(0.0023302844 6.3031797e-06 1.4899925e-06)
(0.0023179851 6.2075248e-06 1.4435158e-06)
(0.0023060089 6.1142043e-06 1.3989937e-06)
(0.0022943424 6.0230688e-06 1.3563256e-06)
(0.0022829727 5.9340595e-06 1.3154152e-06)
(0.0022718877 5.8471303e-06 1.2761702e-06)
(0.002261076 5.7622052e-06 1.2385012e-06)
(0.0022505267 5.679199e-06 1.2023312e-06)
(0.0022402296 5.598043e-06 1.1675829e-06)
(0.0022301752 5.5186735e-06 1.1341882e-06)
(0.0022203542 5.4410309e-06 1.1020812e-06)
(0.002210758 5.3650629e-06 1.0711993e-06)
(0.0022013784 5.2907179e-06 1.0414841e-06)
(0.0021922076 5.2179486e-06 1.0128823e-06)
(0.0021832381 5.146709e-06 9.8533902e-07)
(0.0021744628 5.0769572e-06 9.5880345e-07)
(0.0021658752 5.008649e-06 9.3323094e-07)
(0.0021574688 4.9417451e-06 9.0857414e-07)
(0.0021492375 4.8761982e-06 8.8479033e-07)
(0.0021411756 4.8119666e-06 8.6183874e-07)
(0.0021332776 4.7489977e-06 8.3967781e-07)
(0.0021255383 4.6872372e-06 8.1827083e-07)
(0.0021179527 4.6266224e-06 7.9757773e-07)
(0.0021105161 4.5670676e-06 7.7756101e-07)
(0.0021032242 4.5084822e-06 7.5818388e-07)
(0.0020960727 4.4507548e-06 7.3941061e-07)
(0.0020890577 4.3937752e-06 7.2120347e-07)
(0.0020821756 4.3374553e-06 7.0352e-07)
(0.002075423 4.2818113e-06 6.863216e-07)
(0.0020687967 4.2271339e-06 6.6956252e-07)
(0.0020622937 4.174354e-06 6.5320376e-07)
(0.002055911 4.1258152e-06 6.3726228e-07)
(0.0020496453 4.0868293e-06 6.2198449e-07)
(0.0020434926 4.068777e-06 6.0874645e-07)
(0.0020374483 4.0948782e-06 6.0452129e-07)
(0.0020315149 4.2094261e-06 6.3987836e-07)
(0.0020256647 4.479748e-06 7.1688419e-07)
(0.0020144539 4.9057767e-06 2.2695249e-06)
(0.0094902877 9.6726608e-05 0.00022289229)
(0.00917661 0.00016632333 0.00026788105)
(0.0087449456 0.00019969046 0.00025550648)
(0.0082664657 0.00021101604 0.00023762681)
(0.00781215 0.0002109939 0.0002181603)
(0.0073950862 0.0002028236 0.00019646328)
(0.0070087986 0.00018827265 0.00017418493)
(0.006648835 0.00016968865 0.0001528463)
(0.0063142174 0.00014929331 0.00013312182)
(0.0060045996 0.00012875288 0.0001152379)
(0.0057192201 0.00010923291 9.9256791e-05)
(0.0054570682 9.149007e-05 8.514891e-05)
(0.0052170782 7.5923398e-05 7.2816212e-05)
(0.0049981259 6.264333e-05 6.2119133e-05)
(0.0047989841 5.1561152e-05 5.2900047e-05)
(0.0046183234 4.2472278e-05 4.4997976e-05)
(0.0044547458 3.5118725e-05 3.8256897e-05)
(0.0043068267 2.9230544e-05 3.2530441e-05)
(0.0041731526 2.4550834e-05 2.7684338e-05)
(0.0040523509 2.084911e-05 2.3597363e-05)
(0.0039431142 1.7926911e-05 2.0161345e-05)
(0.0038442168 1.56186e-05 1.7280682e-05)
(0.0037545253 1.3789364e-05 1.4871532e-05)
(0.0036730042 1.2331758e-05 1.2860862e-05)
(0.0035987172 1.1161538e-05 1.118521e-05)
(0.0035308246 1.0213365e-05 9.7889731e-06)
(0.0034685786 9.4380814e-06 8.6250717e-06)
(0.0034113173 8.7971265e-06 7.6543151e-06)
(0.0033584589 8.26272e-06 6.8439404e-06)
(0.0033094933 7.8140817e-06 6.1664548e-06)
(0.0032639753 7.4348248e-06 5.5988449e-06)
(0.0032215172 7.1121305e-06 5.1219261e-06)
(0.0031817817 6.8360965e-06 4.7197262e-06)
(0.0031444758 6.5990207e-06 4.3789721e-06)
(0.0031093448 6.3947798e-06 4.0886805e-06)
(0.0030761678 6.2184058e-06 3.8397972e-06)
(0.0030447526 6.0657969e-06 3.6248779e-06)
(0.003014932 5.9335276e-06 3.4378171e-06)
(0.0029865602 5.8186976e-06 3.273619e-06)
(0.0029595097 5.7188197e-06 3.1282054e-06)
(0.002933669 5.6317495e-06 2.9982612e-06)
(0.0029089401 5.5556264e-06 2.8810971e-06)
(0.0028852364 5.4888249e-06 2.7745335e-06)
(0.0028624815 5.4299145e-06 2.6768105e-06)
(0.0028406075 5.3776444e-06 2.586505e-06)
(0.0028195538 5.3309242e-06 2.5024727e-06)
(0.0027992664 5.2888091e-06 2.4237885e-06)
(0.0027796963 5.250482e-06 2.3497102e-06)
(0.0027607998 5.2152423e-06 2.2796376e-06)
(0.002742537 5.1824986e-06 2.2130836e-06)
(0.0027248717 5.1517655e-06 2.1496543e-06)
(0.0027077708 5.1226686e-06 2.0890233e-06)
(0.0026912041 5.0948946e-06 2.030921e-06)
(0.0026751435 5.0680861e-06 1.9751361e-06)
(0.0026595636 5.0410647e-06 1.9215392e-06)
(0.0026444411 5.0142593e-06 1.8699669e-06)
(0.002629754 4.9880187e-06 1.8202524e-06)
(0.0026154815 4.9620734e-06 1.7722783e-06)
(0.0026016045 4.9361416e-06 1.72596e-06)
(0.0025881054 4.9100845e-06 1.6812142e-06)
(0.0025749674 4.8838323e-06 1.6379658e-06)
(0.002562175 4.8573391e-06 1.5961459e-06)
(0.0025497136 4.8305799e-06 1.5556921e-06)
(0.0025375693 4.80354e-06 1.516548e-06)
(0.0025257292 4.7761756e-06 1.4786598e-06)
(0.002514181 4.7483843e-06 1.4419856e-06)
(0.0025029134 4.7202767e-06 1.4064834e-06)
(0.0024919154 4.6919161e-06 1.3721019e-06)
(0.0024811765 4.663291e-06 1.3387969e-06)
(0.002470687 4.6344026e-06 1.3065291e-06)
(0.0024604377 4.605268e-06 1.2752597e-06)
(0.0024504197 4.5759102e-06 1.244954e-06)
(0.0024406247 4.5463471e-06 1.2155756e-06)
(0.0024310448 4.5166027e-06 1.1870929e-06)
(0.0024216723 4.4866962e-06 1.159473e-06)
(0.0024125001 4.4566519e-06 1.1326838e-06)
(0.0024035213 4.4264889e-06 1.1066974e-06)
(0.0023947295 4.3962281e-06 1.081483e-06)
(0.0023861184 4.365888e-06 1.0570134e-06)
(0.0023776821 4.3354865e-06 1.0332597e-06)
(0.0023694149 4.3050329e-06 1.0101955e-06)
(0.0023613115 4.2745338e-06 9.8779473e-07)
(0.0023533667 4.2439911e-06 9.6603053e-07)
(0.0023455757 4.213394e-06 9.4487492e-07)
(0.0023379338 4.1827201e-06 9.243e-07)
(0.0023304365 4.1519272e-06 9.0427675e-07)
(0.0023230798 4.1209548e-06 8.8477234e-07)
(0.0023158598 4.0897244e-06 8.6575264e-07)
(0.0023087726 4.0581575e-06 8.4717237e-07)
(0.002301815 4.026192e-06 8.2898042e-07)
(0.0022949838 3.9938775e-06 8.1110696e-07)
(0.0022882766 3.9615307e-06 7.9346315e-07)
(0.002281691 3.9300781e-06 7.7594474e-07)
(0.0022752261 3.9016918e-06 7.5847776e-07)
(0.002268882 3.88094e-06 7.4124691e-07)
(0.0022626608 3.8766474e-06 7.2572612e-07)
(0.0022565686 3.9043048e-06 7.1957972e-07)
(0.0022506189 3.9866555e-06 7.5579866e-07)
(0.0022447715 4.1391003e-06 8.4931707e-07)
(0.002233564 4.2832253e-06 2.4122111e-06)
(0.0094843561 6.6886586e-05 0.00022303624)
(0.0091549219 0.00011904886 0.00026838771)
(0.0087072816 0.00014772497 0.00025588053)
(0.0082191888 0.00015892952 0.00023765677)
(0.0077602858 0.00016026049 0.00021787142)
(0.0073412804 0.00015505102 0.00019586613)
(0.0069552494 0.00014481701 0.00017327438)
(0.0065978366 0.00013121474 0.00015165024)
(0.0062677954 0.00011592881 0.00013169211)
(0.0059642872 0.00010028521 0.0001136244)
(0.0056860598 8.5214431e-05 9.7497522e-05)
(0.0054316726 7.1330406e-05 8.3272195e-05)
(0.0051997008 5.8984297e-05 7.0844883e-05)
(0.0049887459 4.8311753e-05 6.0073374e-05)
(0.0047973943 3.9291582e-05 5.0798891e-05)
(0.0046242055 3.1804353e-05 4.2859902e-05)
(0.0044677269 2.5679085e-05 3.6099806e-05)
(0.0043265179 2.0725786e-05 3.037129e-05)
(0.0041991724 1.6756345e-05 2.5538702e-05)
(0.004084339 1.3596838e-05 2.1479083e-05)
(0.0039807371 1.1093752e-05 1.8082323e-05)
(0.0038871692 9.1161629e-06 1.5250791e-05)
(0.0038025288 7.5553802e-06 1.2898648e-05)
(0.003725804 6.3231346e-06 1.0950987e-05)
(0.0036560786 5.3488187e-06 9.342678e-06)
(0.0035925304 4.5751801e-06 8.0166141e-06)
(0.0035344253 3.9620983e-06 6.92395e-06)
(0.0034811131 3.4726259e-06 6.0250737e-06)
(0.0034320221 3.0815182e-06 5.2862624e-06)
(0.0033866501 2.7702755e-06 4.6792098e-06)
(0.0033445586 2.5236727e-06 4.180521e-06)
(0.0033053662 2.3295863e-06 3.7707529e-06)
(0.0032687419 2.1784973e-06 3.433745e-06)
(0.0032343982 2.062905e-06 3.1561105e-06)
(0.0032020863 1.9768087e-06 2.926797e-06)
(0.0031715907 1.9153179e-06 2.736703e-06)
(0.0031427248 1.87438e-06 2.5783555e-06)
(0.0031153267 1.8506052e-06 2.4456283e-06)
(0.0030892563 1.8411252e-06 2.3335223e-06)
(0.0030643915 1.8434993e-06 2.2379668e-06)
(0.003040626 1.8556444e-06 2.1556636e-06)
(0.0030178671 1.8757806e-06 2.0839524e-06)
(0.0029960335 1.9023807e-06 2.0206946e-06)
(0.0029750538 1.9341338e-06 1.964182e-06)
(0.0029548649 1.9699159e-06 1.9130518e-06)
(0.0029354109 2.0087627e-06 1.8662263e-06)
(0.0029166424 2.0498584e-06 1.822853e-06)
(0.0028985148 2.0925103e-06 1.7822572e-06)
(0.0028809886 2.1361382e-06 1.7439138e-06)
(0.0028640277 2.1802715e-06 1.7074098e-06)
(0.0028476 2.2245496e-06 1.6724148e-06)
(0.0028316758 2.2687605e-06 1.6386542e-06)
(0.0028162284 2.3128938e-06 1.6058714e-06)
(0.0028012324 2.3570794e-06 1.5738228e-06)
(0.0027866658 2.397871e-06 1.5431887e-06)
(0.0027725089 2.4362351e-06 1.5136865e-06)
(0.0027587418 2.4734401e-06 1.4848874e-06)
(0.002745346 2.5095344e-06 1.4566998e-06)
(0.002732305 2.544351e-06 1.4291156e-06)
(0.0027196032 2.5777719e-06 1.4021112e-06)
(0.0027072261 2.6097238e-06 1.3756635e-06)
(0.0026951602 2.6401645e-06 1.3497557e-06)
(0.0026833928 2.6690877e-06 1.3243755e-06)
(0.0026719116 2.6965055e-06 1.2995094e-06)
(0.0026607054 2.7223721e-06 1.2751523e-06)
(0.0026497635 2.7463558e-06 1.2513129e-06)
(0.002639076 2.7689096e-06 1.227978e-06)
(0.0026286333 2.7901483e-06 1.2051284e-06)
(0.0026184262 2.8099938e-06 1.1827614e-06)
(0.0026084461 2.8284322e-06 1.1608705e-06)
(0.0025986849 2.845493e-06 1.1394483e-06)
(0.0025891348 2.8612178e-06 1.1184902e-06)
(0.0025797885 2.8756495e-06 1.097986e-06)
(0.002570639 2.8888322e-06 1.0779285e-06)
(0.0025616795 2.9008072e-06 1.0583084e-06)
(0.0025529038 2.9116209e-06 1.0391184e-06)
(0.0025443058 2.9213142e-06 1.0203492e-06)
(0.0025358796 2.9299289e-06 1.0019899e-06)
(0.0025276198 2.9375056e-06 9.8403226e-07)
(0.002519521 2.9440796e-06 9.6646577e-07)
(0.0025115783 2.9496806e-06 9.492784e-07)
(0.0025037869 2.954336e-06 9.3246173e-07)
(0.0024961421 2.9580676e-06 9.1600083e-07)
(0.0024886396 2.9608807e-06 8.9988029e-07)
(0.0024812752 2.9627725e-06 8.8408551e-07)
(0.002474045 2.9637224e-06 8.6859441e-07)
(0.0024669452 2.9636885e-06 8.533817e-07)
(0.0024599723 2.9626123e-06 8.3841433e-07)
(0.0024531231 2.9604302e-06 8.2364325e-07)
(0.0024463945 2.9570969e-06 8.090036e-07)
(0.0024397839 2.9526511e-06 7.9439883e-07)
(0.0024332895 2.9473506e-06 7.796936e-07)
(0.0024269099 2.9419135e-06 7.6470936e-07)
(0.0024206457 2.9379217e-06 7.4925973e-07)
(0.0024144993 2.9384182e-06 7.3336474e-07)
(0.0024084767 2.9484959e-06 7.1826429e-07)
(0.0024025877 2.9751248e-06 7.1113265e-07)
(0.002396846 3.0234615e-06 7.4331304e-07)
(0.0023911946 3.0808307e-06 8.3046578e-07)
(0.0023803644 3.0574264e-06 2.2999435e-06)
(0.0094810492 4.4090135e-05 0.00022308885)
(0.0091422796 7.9975482e-05 0.00026874495)
(0.0086839084 0.00010160921 0.00025628771)
(0.0081880903 0.00011101591 0.00023793456)
(0.0077246858 0.00011275117 0.00021798622)
(0.0073029895 0.00010953687 0.00019578738)
(0.0069155191 0.00010266029 0.00017296032)
(0.0065579578 9.3267235e-05 0.0001510852)
(0.006229001 8.2539593e-05 0.00013089045)
(0.005927585 7.1446833e-05 0.00011261412)
(0.0056522063 6.067336e-05 9.6309238e-05)
(0.0054012005 5.0670807e-05 8.1936268e-05)
(0.0051729477 4.1706608e-05 6.9390831e-05)
(0.004965887 3.3898115e-05 5.8529097e-05)
(0.0047784814 2.7249954e-05 4.9189879e-05)
(0.0046092054 2.1693072e-05 4.1208773e-05)
(0.0044565535 1.7117436e-05 3.4426143e-05)
(0.0043190553 1.3395519e-05 2.8691658e-05)
(0.0041952917 1.0397813e-05 2.3866804e-05)
(0.0040839086 8.0023318e-06 1.9826011e-05)
(0.0039836292 6.0997694e-06 1.645686e-05)
(0.0038932634 4.5956615e-06 1.3659715e-05)
(0.0038117126 3.4106735e-06 1.1347013e-05)
(0.0037379734 2.4799291e-06 9.4422924e-06)
(0.0036711359 1.7515113e-06 7.879089e-06)
(0.0036103859 1.1749032e-06 6.6010325e-06)
(0.0035549935 7.2233961e-07 5.5561197e-06)
(0.0035043108 3.7342318e-07 4.7060699e-06)
(0.0034577717 1.0569422e-07 4.0163445e-06)
(0.0034148763 -9.9091134e-08 3.457414e-06)
(0.0033751872 -2.5333731e-07 3.0054957e-06)
(0.0033383243 -3.6639987e-07 2.6409743e-06)
(0.0033039576 -4.4577893e-07 2.3475731e-06)
(0.0032718009 -4.9748361e-07 2.1118258e-06)
(0.0032416065 -5.2634467e-07 1.9226415e-06)
(0.0032131599 -5.363087e-07 1.7709153e-06)
(0.0031862758 -5.3063959e-07 1.6492029e-06)
(0.0031607936 -5.1206229e-07 1.5514416e-06)
(0.0031365743 -4.8287176e-07 1.4727112e-06)
(0.0031134976 -4.4500752e-07 1.4090333e-06)
(0.0030914586 -4.0011205e-07 1.357205e-06)
(0.0030703663 -3.4957929e-07 1.3146567e-06)
(0.0030501409 -2.9459543e-07 1.2793313e-06)
(0.0030307129 -2.3616925e-07 1.2495917e-06)
(0.0030120207 -1.7516493e-07 1.2241406e-06)
(0.0029940105 -1.1232042e-07 1.2019535e-06)
(0.0029766343 -4.8266799e-08 1.1822241e-06)
(0.0029598495 1.6450056e-08 1.1643218e-06)
(0.0029436181 8.1355504e-08 1.147753e-06)
(0.002927906 1.4602475e-07 1.1321249e-06)
(0.0029126825 2.1005792e-07 1.1171179e-06)
(0.0028979201 2.7304894e-07 1.1024384e-06)
(0.0028835935 3.3454215e-07 1.08766e-06)
(0.0028696773 3.9432468e-07 1.0722032e-06)
(0.0028561514 4.570502e-07 1.0590086e-06)
(0.0028429997 5.2060103e-07 1.0472574e-06)
(0.0028302035 5.8225322e-07 1.0356075e-06)
(0.0028177449 6.41638e-07 1.0238004e-06)
(0.0028056084 6.9901921e-07 1.0118746e-06)
(0.0027937799 7.5456085e-07 9.9986803e-07)
(0.0027822461 8.0834958e-07 9.8781017e-07)
(0.0027709946 8.6046722e-07 9.7571787e-07)
(0.0027600137 9.1102661e-07 9.6360262e-07)
(0.0027492926 9.6019628e-07 9.5144656e-07)
(0.0027388207 1.008006e-06 9.3926742e-07)
(0.0027285887 1.0528497e-06 9.2746574e-07)
(0.0027185878 1.0958669e-06 9.1582848e-07)
(0.0027088089 1.1375012e-06 9.042525e-07)
(0.0026992438 1.1777678e-06 8.9275965e-07)
(0.0026898847 1.2166583e-06 8.813663e-07)
(0.0026807244 1.2541703e-06 8.7007947e-07)
(0.0026717559 1.2903144e-06 8.589069e-07)
(0.0026629726 1.3251081e-06 8.478527e-07)
(0.0026543682 1.3585747e-06 8.3692273e-07)
(0.0026459367 1.3907409e-06 8.2612083e-07)
(0.0026376723 1.4216365e-06 8.1545297e-07)
(0.0026295698 1.4512902e-06 8.0491981e-07)
(0.0026216238 1.4797314e-06 7.9452267e-07)
(0.0026138294 1.5069902e-06 7.842633e-07)
(0.002606182 1.5330941e-06 7.7413985e-07)
(0.0025986769 1.5580632e-06 7.6415195e-07)
(0.0025913099 1.5819212e-06 7.5429536e-07)
(0.0025840769 1.6046814e-06 7.4456559e-07)
(0.0025769739 1.6263505e-06 7.3495316e-07)
(0.0025699972 1.6469229e-06 7.2544854e-07)