/*--------------------------------*- C++ -*----------------------------------*\
  =========                 |
  \\      /  F ield         | OpenFOAM: The Open Source CFD Toolbox
   \\    /   O peration     | Website:  https://openfoam.org
    \\  /    A nd           | Version:  7
     \\/     M anipulation  |
\*---------------------------------------------------------------------------*/
FoamFile
{
    version     2.0;
    format      ascii;
    class       surfaceScalarField;
    location    "1000/water";
    object      phi;
}
// * * * * * * * * * * * * * * * * * * * * * * * * * * * * * * * * * * * * * //

dimensions      [1 0 -1 0 0 0 0];

internalField   nonuniform List<scalar> 
156660
(
9.9057239e-05
6.0010402e-06
6.0528092e-06
8.6847497e-05
6.0555113e-06
6.1542307e-06
7.5687891e-05
5.5111362e-06
5.6484701e-06
6.5441704e-05
5.0404181e-06
5.2057689e-06
5.6267661e-05
4.4956436e-06
4.6783992e-06
4.8318019e-05
3.8797648e-06
4.0698777e-06
4.1624776e-05
3.2524449e-06
3.4407981e-06
3.6124897e-05
2.660462e-06
2.839417e-06
3.1692235e-05
2.1345127e-06
2.2981489e-06
2.8162841e-05
1.6926975e-06
1.8366964e-06
2.5361437e-05
1.3399933e-06
1.4614113e-06
2.3124664e-05
1.0698477e-06
1.1669256e-06
2.1315127e-05
8.6875418e-07
9.4078223e-07
1.9825714e-05
7.2110064e-07
7.6831272e-07
1.8577278e-05
6.1248247e-07
6.3595306e-07
1.7513255e-05
5.3125219e-07
5.3277152e-07
1.6593744e-05
4.6879724e-07
4.5071349e-07
1.5790433e-05
4.1913717e-07
3.8417388e-07
1.5082784e-05
3.7829068e-07
3.2935851e-07
1.4455417e-05
3.4367127e-07
2.8369563e-07
1.3896409e-05
3.1361409e-07
2.4539334e-07
1.339622e-05
2.8704449e-07
2.1314453e-07
1.2947015e-05
2.6326032e-07
1.859451e-07
1.2542237e-05
2.4179366e-07
1.6298464e-07
1.2176318e-05
2.2232209e-07
1.4359691e-07
1.1844484e-05
2.046148e-07
1.2721879e-07
1.1542609e-05
1.8849496e-07
1.1337974e-07
1.1267116e-05
1.7381576e-07
1.0167791e-07
1.1014892e-05
1.604627e-07
9.1760863e-08
1.0783252e-05
1.4833964e-07
8.3300621e-08
1.0569851e-05
1.3734903e-07
7.605215e-08
1.0372614e-05
1.2738861e-07
6.9848311e-08
1.0189731e-05
1.1836806e-07
6.4514843e-08
1.001963e-05
1.1020445e-07
5.9896619e-08
9.8609388e-06
1.028192e-07
5.587166e-08
9.7124594e-06
9.6137948e-08
5.2341365e-08
9.5731439e-06
9.0091192e-08
4.9224336e-08
9.4420759e-06
8.4614485e-08
4.6453577e-08
9.3184531e-06
7.9648657e-08
4.3974119e-08
9.2015723e-06
7.5139706e-08
4.1741095e-08
9.0908166e-06
7.1038148e-08
3.9717581e-08
8.9856431e-06
6.7301147e-08
3.7872341e-08
8.8855707e-06
6.389425e-08
3.6178183e-08
8.7901757e-06
6.0780108e-08
3.461495e-08
8.6990829e-06
5.7926185e-08
3.3166658e-08
8.611959e-06
5.5303724e-08
3.1820141e-08
8.5285072e-06
5.2887435e-08
3.056442e-08
8.4484618e-06
5.0655069e-08
2.9390283e-08
8.3715848e-06
4.8587028e-08
2.8290008e-08
8.2976614e-06
4.6666192e-08
2.7257196e-08
8.2264975e-06
4.487747e-08
2.628644e-08
8.1579202e-06
4.3208778e-08
2.536853e-08
8.0917731e-06
4.1649031e-08
2.4498027e-08
8.0279107e-06
4.0186973e-08
2.367537e-08
7.9662006e-06
3.8812689e-08
2.2897562e-08
7.9065219e-06
3.751841e-08
2.2160257e-08
7.8487639e-06
3.6297849e-08
2.1460149e-08
7.7928242e-06
3.5145146e-08
2.0794565e-08
7.7386083e-06
3.4054669e-08
2.016114e-08
7.6860293e-06
3.3021356e-08
1.9557687e-08
7.6350062e-06
3.2040788e-08
1.8982252e-08
7.5854641e-06
3.1109062e-08
1.8433085e-08
7.537333e-06
3.0222603e-08
1.7908477e-08
7.4905478e-06
2.9378257e-08
1.7407001e-08
7.4450476e-06
2.857298e-08
1.6927211e-08
7.4007755e-06
2.7804239e-08
1.6467798e-08
7.3576783e-06
2.7069592e-08
1.6027649e-08
7.3157056e-06
2.6367053e-08
1.5605625e-08
7.2748103e-06
2.569467e-08
1.5200673e-08
7.2349479e-06
2.5050591e-08
1.4811847e-08
7.1960766e-06
2.4433083e-08
1.4438181e-08
7.158157e-06
2.3840685e-08
1.4078926e-08
7.1211518e-06
2.3271897e-08
1.3733276e-08
7.0850258e-06
2.2725499e-08
1.3400525e-08
7.0497456e-06
2.2200215e-08
1.3079956e-08
7.0152798e-06
2.1694921e-08
1.277091e-08
6.9815985e-06
2.12086e-08
1.2472732e-08
6.9486733e-06
2.0740235e-08
1.2184906e-08
6.9164775e-06
2.0288966e-08
1.1906807e-08
6.8849857e-06
1.9853982e-08
1.1637813e-08
6.8541739e-06
1.9434371e-08
1.1377489e-08
6.8240193e-06
1.9029465e-08
1.1125092e-08
6.7945006e-06
1.8638484e-08
1.088025e-08
6.7655975e-06
1.8260787e-08
1.0642331e-08
6.7372912e-06
1.7895567e-08
1.0410791e-08
6.709564e-06
1.7542116e-08
1.0185083e-08
6.6823995e-06
1.7199644e-08
9.9648674e-09
6.6557824e-06
1.6867286e-08
9.7498458e-09
6.6296983e-06
1.6544124e-08
9.5399617e-09
6.604133e-06
1.6229259e-08
9.3360085e-09
6.5790714e-06
1.5921986e-08
9.1396858e-09
6.554494e-06
1.5622333e-08
8.955111e-09
6.5303707e-06
1.5332574e-08
8.7906896e-09
6.5066467e-06
1.5060426e-08
8.6636115e-09
6.4832094e-06
1.4827836e-08
8.6095201e-09
6.4598103e-06
1.4693064e-08
8.7060296e-09
6.4358387e-06
1.4826414e-08
9.145131e-09
6.4096302e-06
1.5741754e-08
1.0466727e-08
6.3782854e-06
1.8026566e-08
1.3318219e-08
3.2300225e-08
2.7923546e-08
0.00010646494
4.1872385e-06
6.4599816e-06
0.0001002019
5.695418e-06
6.6231353e-06
9.3659588e-05
5.7790389e-06
6.2744098e-06
8.7011589e-05
5.6514782e-06
6.0369387e-06
8.0422927e-05
5.366912e-06
5.7173941e-06
7.4094022e-05
4.9022832e-06
5.3063862e-06
6.8167026e-05
4.3278135e-06
4.8516272e-06
6.2722565e-05
3.717891e-06
4.387032e-06
5.7799049e-05
3.1243144e-06
3.9337145e-06
5.3403345e-05
2.5820689e-06
3.5063329e-06
4.9517402e-05
2.1121062e-06
3.1138299e-06
4.6105482e-05
1.7220197e-06
2.7597474e-06
4.3121558e-05
1.4089355e-06
2.4437429e-06
4.0515558e-05
1.1637552e-06
2.163346e-06
3.8237948e-05
9.7485849e-07
1.9152336e-06
3.6242683e-05
8.3055976e-07
1.6959573e-06
3.4488759e-05
7.2043698e-07
1.5022849e-06
3.2940716e-05
6.3586297e-07
1.3313172e-06
3.1568463e-05
5.7005004e-07
1.1804931e-06
3.0346733e-05
5.1784895e-07
1.0475522e-06
2.9254398e-05
4.7545951e-07
9.3049031e-07
2.8273782e-05
4.4013958e-07
8.2752026e-07
2.7390054e-05
4.0994893e-07
7.3704009e-07
2.6590699e-05
3.8353954e-07
6.5760856e-07
2.5865102e-05
3.5998889e-07
5.8793072e-07
2.5204197e-05
3.3867632e-07
5.2684262e-07
2.4600205e-05
3.191836e-07
4.7330346e-07
2.4046429e-05
3.012019e-07
4.2639016e-07
2.3537073e-05
2.8455208e-07
3.8526717e-07
2.3067119e-05
2.6911099e-07
3.491824e-07
2.2632208e-05
2.5478165e-07
3.1747787e-07
2.2228528e-05
2.4147378e-07
2.8959531e-07
2.1852744e-05
2.2911071e-07
2.6504126e-07
2.1501947e-05
2.176289e-07
2.4337258e-07
2.1173591e-05
2.069695e-07
2.2420574e-07
2.0865444e-05
1.9707567e-07
2.0720869e-07
2.0575549e-05
1.8789253e-07
1.9209396e-07
2.0302183e-05
1.7936724e-07
1.7861342e-07
2.0043829e-05
1.714491e-07
1.6655325e-07
1.979915e-05
1.640898e-07
1.5572943e-07
1.956696e-05
1.5724378e-07
1.4598404e-07
1.934621e-05
1.5086894e-07
1.3718218e-07
1.9135969e-05
1.4492653e-07
1.2920884e-07
1.8935407e-05
1.3937904e-07
1.2196305e-07
1.8743783e-05
1.341923e-07
1.1535763e-07
1.8560435e-05
1.293351e-07
1.0931728e-07
1.8384766e-05
1.2477908e-07
1.0377716e-07
1.8216241e-05
1.2049851e-07
9.8681273e-08
1.8054377e-05
1.1647014e-07
9.3981336e-08
1.7898734e-05
1.1267291e-07
8.9635435e-08
1.7748917e-05
1.0908822e-07
8.5607017e-08
1.7604563e-05
1.0570003e-07
8.1862414e-08
1.7465345e-05
1.0249339e-07
7.8373259e-08
1.7330962e-05
9.9453018e-08
7.5116966e-08
1.7201138e-05
9.6564423e-08
7.2072756e-08
1.7075619e-05
9.3816662e-08
6.9221152e-08
1.695417e-05
9.1201119e-08
6.6545087e-08
1.6836577e-05
8.8709099e-08
6.4029519e-08
1.6722638e-05
8.6331964e-08
6.1661068e-08
1.661217e-05
8.4061782e-08
5.9427711e-08
1.6505001e-05
8.1891517e-08
5.7318848e-08
1.640097e-05
7.9814901e-08
5.5324888e-08
1.6299929e-05
7.7826128e-08
5.3437127e-08
1.620174e-05
7.591984e-08
5.164791e-08
1.6106272e-05
7.4091036e-08
4.9950121e-08
1.6013404e-05
7.233495e-08
4.8337377e-08
1.5923022e-05
7.0647718e-08
4.6803902e-08
1.5835019e-05
6.9025711e-08
4.5344284e-08
1.5749294e-05
6.7465549e-08
4.3953686e-08
1.5665753e-05
6.5963807e-08
4.2627682e-08
1.5584307e-05
6.4517367e-08
4.1362164e-08
1.5504871e-05
6.3123421e-08
4.015338e-08
1.5427365e-05
6.1779315e-08
3.8997799e-08
1.5351716e-05
6.048253e-08
3.7892264e-08
1.5277852e-05
5.9230835e-08
3.6833855e-08
1.5205705e-05
5.8021986e-08
3.581974e-08
1.5135212e-05
5.6853992e-08
3.4847353e-08
1.5066313e-05
5.5724988e-08
3.391433e-08
1.499895e-05
5.4633133e-08
3.3018407e-08
1.493307e-05
5.3576741e-08
3.2157434e-08
1.4868621e-05
5.2554207e-08
3.1329398e-08
1.4805554e-05
5.1563929e-08
3.0532426e-08
1.4743823e-05
5.0604493e-08
2.9764672e-08
1.4683385e-05
4.9674306e-08
2.9024384e-08
1.4624199e-05
4.8771795e-08
2.8309875e-08
1.4566226e-05
4.7895456e-08
2.7619565e-08
1.4509431e-05
4.7043497e-08
2.695199e-08
1.4453778e-05
4.6214106e-08
2.6305788e-08
1.4399237e-05
4.5405422e-08
2.5679897e-08
1.4345777e-05
4.4615691e-08
2.5073748e-08
1.4293367e-05
4.3844268e-08
2.4487687e-08
1.4241972e-05
4.3092884e-08
2.3923731e-08
1.4191548e-05
4.2369882e-08
2.3387102e-08
1.4142019e-05
4.1699273e-08
2.2889627e-08
1.4093249e-05
4.1141618e-08
2.2456632e-08
1.4044951e-05
4.0844628e-08
2.2146578e-08
1.3996485e-05
4.1169189e-08
2.2123033e-08
1.3946229e-05
4.3012272e-08
2.2985404e-08
1.389015e-05
4.8540237e-08
2.5565796e-08
6.3281545e-08
5.0000874e-08
0.00010603565
2.7876425e-06
6.4750379e-06
0.00010074799
4.4145413e-06
6.5685292e-06
9.5493515e-05
4.8594028e-06
6.1741158e-06
9.0256432e-05
4.930369e-06
5.9581921e-06
8.5101366e-05
4.8311767e-06
5.6908012e-06
8.0102875e-05
4.5561761e-06
5.3445981e-06
7.5322251e-05
4.1469521e-06
4.9614853e-06
7.0803266e-05
3.6678925e-06
4.5689837e-06
6.6576264e-05
3.1701903e-06
4.1811255e-06
6.2660725e-05
2.6900109e-06
3.8075976e-06
5.9065443e-05
2.2519319e-06
3.4554566e-06
5.5788936e-05
1.8697304e-06
3.1287957e-06
5.2820978e-05
1.5477473e-06
2.8291458e-06
5.014479e-05
1.2836302e-06
2.5563139e-06
4.7739304e-05
1.07123e-06
2.3091141e-06
4.5581183e-05
9.0281502e-07
2.0858661e-06
4.3646423e-05
7.704878e-07
1.884709e-06
4.1911533e-05
6.6697372e-07
1.7037793e-06
4.0354306e-05
5.8598196e-07
1.541295e-06
3.8954268e-05
5.2230221e-07
1.3955849e-06
3.769288e-05
4.7175602e-07
1.265091e-06
3.6553576e-05
4.3107982e-07
1.1483634e-06
3.552169e-05
3.9778203e-07
1.0440533e-06
3.4584322e-05
3.699988e-07
9.5090829e-07
3.3730181e-05
3.4635985e-07
8.6777019e-07
3.2949411e-05
3.2587762e-07
7.935687e-07
3.2233419e-05
3.0784047e-07
7.2733484e-07
3.1574711e-05
2.9172983e-07
6.6818104e-07
3.0966769e-05
2.7719264e-07
6.1530128e-07
3.0403928e-05
2.63981e-07
5.6797021e-07
2.9881258e-05
2.5190845e-07
5.2554317e-07
2.9394455e-05
2.408271e-07
4.8745002e-07
2.8939761e-05
2.3062158e-07
4.5318327e-07
2.8513895e-05
2.2120153e-07
4.2229387e-07
2.8113985e-05
2.1249191e-07
3.9438673e-07
2.7737518e-05
2.0442793e-07
3.6911487e-07
2.7382285e-05
1.969519e-07
3.4617384e-07
2.7046344e-05
1.9001176e-07
3.252968e-07
2.6727982e-05
1.8355995e-07
3.0625046e-07
2.6425689e-05
1.7755275e-07
2.8883086e-07
2.6138123e-05
1.7195005e-07
2.7285987e-07
2.5864094e-05
1.6671515e-07
2.5818187e-07
2.5602546e-05
1.6181452e-07
2.4466092e-07
2.535253e-05
1.5721709e-07
2.3217766e-07
2.51132e-05
1.5289443e-07
2.2062726e-07
2.4883797e-05
1.4882098e-07
2.0991775e-07
2.4663634e-05
1.4497366e-07
1.9996812e-07
2.4452094e-05
1.4133184e-07
1.9070705e-07
2.4248615e-05
1.3787695e-07
1.8207152e-07
2.405269e-05
1.3459266e-07
1.7400573e-07
2.3863854e-05
1.3146461e-07
1.6645991e-07
2.3681684e-05
1.2848058e-07
1.5938922e-07
2.3505794e-05
1.256292e-07
1.5275412e-07
2.3335829e-05
1.2289868e-07
1.4651967e-07
2.3171462e-05
1.2027637e-07
1.4065461e-07
2.3012394e-05
1.1775478e-07
1.3513022e-07
2.2858345e-05
1.153297e-07
1.2992043e-07
2.2709057e-05
1.1299536e-07
1.250017e-07
2.2564291e-05
1.1074519e-07
1.2035287e-07
2.2423824e-05
1.0857349e-07
1.1595458e-07
2.2287451e-05
1.0647549e-07
1.1178924e-07
2.2154978e-05
1.04447e-07
1.0784079e-07
2.2026226e-05
1.024842e-07
1.0409456e-07
2.1901025e-05
1.005835e-07
1.0053713e-07
2.1779218e-05
9.8741497e-08
9.7156182e-08
2.1660658e-05
9.6954895e-08
9.3940294e-08
2.1545205e-05
9.5221245e-08
9.0879058e-08
2.1432729e-05
9.3538805e-08
8.7962826e-08
2.1323107e-05
9.190532e-08
8.5182596e-08
2.1216222e-05
9.031852e-08
8.253014e-08
2.1111965e-05
8.8776389e-08
7.9997872e-08
2.1010233e-05
8.7277118e-08
7.7578629e-08
2.0910927e-05
8.5818966e-08
7.5265887e-08
2.0813956e-05
8.4400332e-08
7.3053448e-08
2.0719232e-05
8.3019672e-08
7.093569e-08
2.0626671e-05
8.1675614e-08
6.8907208e-08
2.0536195e-05
8.0366815e-08
6.6963123e-08
2.0447729e-05
7.9091965e-08
6.5098751e-08
2.0361203e-05
7.7849834e-08
6.3309753e-08
2.0276548e-05
7.6639261e-08
6.1592041e-08
2.0193702e-05
7.5459003e-08
5.9941733e-08
2.0112602e-05
7.4307962e-08
5.8355235e-08
2.0033193e-05
7.3184915e-08
5.6829065e-08
1.9955419e-05
7.2088594e-08
5.5359957e-08
1.9879228e-05
7.1017609e-08
5.3944863e-08
1.9804572e-05
6.9970422e-08
5.2580737e-08
1.9731406e-05
6.8945232e-08
5.1264796e-08
1.9659685e-05
6.7940108e-08
4.9994356e-08
1.9589371e-05
6.695303e-08
4.8767029e-08
1.9520423e-05
6.5982373e-08
4.7580542e-08
1.9452807e-05
6.5028037e-08
4.643308e-08
1.9386482e-05
6.4094096e-08
4.5323711e-08
1.9321404e-05
6.3194668e-08
4.4253038e-08
1.9257511e-05
6.2366336e-08
4.3225227e-08
1.9194705e-05
6.1695129e-08
4.2253154e-08
1.9132798e-05
6.1374075e-08
4.1377426e-08
1.9071394e-05
6.1822405e-08
4.0750683e-08
1.9009424e-05
6.3924742e-08
4.1057622e-08
1.8944661e-05
6.9304658e-08
4.3998835e-08
7.9170929e-08
7.4661566e-08
0.0001054937
1.9169871e-06
6.4880406e-06
0.00010005365
3.2729596e-06
6.5816334e-06
9.4926077e-05
3.8288995e-06
6.1580776e-06
8.9946373e-05
3.9838109e-06
5.9262629e-06
8.5163276e-05
3.9595077e-06
5.6547657e-06
8.0619137e-05
3.7899369e-06
5.3103784e-06
7.6329462e-05
3.5015547e-06
4.9350725e-06
7.230016e-05
3.1412013e-06
4.5559928e-06
6.8534206e-05
2.7514802e-06
4.1846641e-06
6.5032983e-05
2.3633492e-06
3.8278853e-06
6.1795789e-05
1.9984143e-06
3.490711e-06
5.8818843e-05
1.670376e-06
3.176301e-06
5.6094717e-05
1.3858295e-06
2.886043e-06
5.3612488e-05
1.1457945e-06
2.6200649e-06
5.1358373e-05
9.4764113e-07
2.3777043e-06
4.9316593e-05
7.8676783e-07
2.1578272e-06
4.7470246e-05
6.5779543e-07
1.9590391e-06
4.5802069e-05
5.5532538e-07
1.7798252e-06
4.4295042e-05
4.7437116e-07
1.6186378e-06
4.293283e-05
4.1056664e-07
1.473948e-06
4.1700078e-05
3.6023235e-07
1.3442759e-06
4.0582591e-05
3.2035742e-07
1.2282094e-06
3.956742e-05
2.8853735e-07
1.1244154e-06
3.8642881e-05
2.6289066e-07
1.0316467e-06
3.7798527e-05
2.4196985e-07
9.4874399e-07
3.7025076e-05
2.2467703e-07
8.746517e-07
3.6314324e-05
2.1018901e-07
8.0840412e-07
3.5659057e-05
1.9788604e-07
7.4911042e-07
3.5052961e-05
1.8731582e-07
6.9597283e-07
3.4490519e-05
1.7814871e-07
6.482738e-07
3.3966922e-05
1.7013171e-07
6.0537439e-07
3.3477973e-05
1.6306727e-07
5.6670863e-07
3.3020016e-05
1.5680296e-07
5.3177541e-07
3.2589865e-05
1.5122052e-07
5.0013241e-07
3.218474e-05
1.4622565e-07
4.7139139e-07
3.1802215e-05
1.4174071e-07
4.4521231e-07
3.1440168e-05
1.3770092e-07
4.212981e-07
3.1096739e-05
1.3405094e-07
3.9938925e-07
3.0770297e-05
1.3074291e-07
3.7925956e-07
3.0459402e-05
1.2773518e-07
3.6071194e-07
3.0162787e-05
1.2499095e-07
3.4357478e-07
2.9879325e-05
1.2247782e-07
3.2769853e-07
2.960802e-05
1.2016733e-07
3.1295272e-07
2.934798e-05
1.1803382e-07
2.9922355e-07
2.9098408e-05
1.1605462e-07
2.8641138e-07
2.885859e-05
1.1420986e-07
2.7442907e-07
2.8627882e-05
1.124819e-07
2.6319998e-07
2.8405701e-05
1.108556e-07
2.5265682e-07
2.819152e-05
1.0931757e-07
2.4274023e-07
2.7984859e-05
1.0785646e-07
2.3339755e-07
2.7785279e-05
1.0646279e-07
2.2458212e-07
2.7592378e-05
1.0512871e-07
2.1625213e-07
2.740579e-05
1.0384739e-07
2.0837035e-07
2.7225174e-05
1.0261121e-07
2.0090362e-07
2.705022e-05
1.0140747e-07
1.9382257e-07
2.6880641e-05
1.0023384e-07
1.8710041e-07
2.6716166e-05
9.9092374e-08
1.8071224e-07
2.6556546e-05
9.7980007e-08
1.7463558e-07
2.6401548e-05
9.68925e-08
1.6885012e-07
2.6250957e-05
9.5827063e-08
1.633374e-07
2.610457e-05
9.4781698e-08
1.5808043e-07
2.5962199e-05
9.3754709e-08
1.5306364e-07
2.5823666e-05
9.2744893e-08
1.4827259e-07
2.5688804e-05
9.1751018e-08
1.4369414e-07
2.5557458e-05
9.0771755e-08
1.3931597e-07
2.5429481e-05
8.9805154e-08
1.3512693e-07
2.5304734e-05
8.8851482e-08
1.3111648e-07
2.5183087e-05
8.791122e-08
1.2727467e-07
2.5064416e-05
8.6983936e-08
1.2359242e-07
2.4948604e-05
8.6068946e-08
1.2006119e-07
2.4835542e-05
8.5165804e-08
1.1667303e-07
2.4725124e-05
8.4274302e-08
1.1342047e-07
2.4617252e-05
8.3394262e-08
1.1029657e-07
2.4511832e-05
8.2525472e-08
1.0729478e-07
2.4408775e-05
8.1667733e-08
1.04409e-07
2.4307997e-05
8.082098e-08
1.0163344e-07
2.4209416e-05
7.9985019e-08
9.896266e-08
2.4112956e-05
7.9159734e-08
9.6391532e-08
2.4018546e-05
7.8345011e-08
9.3915285e-08
2.3926115e-05
7.7540678e-08
9.1529276e-08
2.3835598e-05
7.6746554e-08
8.9229272e-08
2.3746933e-05
7.5962304e-08
8.7011037e-08
2.3660059e-05
7.5187631e-08
8.487073e-08
2.3574922e-05
7.4421972e-08
8.2804542e-08
2.3491466e-05
7.3664634e-08
8.0808925e-08
2.3409641e-05
7.2914625e-08
7.8880345e-08
2.33294e-05
7.2170704e-08
7.7015484e-08
2.3250698e-05
7.1431353e-08
7.5210992e-08
2.3173492e-05
7.0694869e-08
7.3463639e-08
2.3097745e-05
6.9960221e-08
7.1770083e-08
2.3023418e-05
6.9227991e-08
7.012703e-08
2.2950477e-05
6.8503468e-08
6.8531158e-08
2.2878889e-05
6.7802882e-08
6.6979705e-08
2.2808619e-05
6.7165072e-08
6.547158e-08
2.2739625e-05
6.6675242e-08
6.4013383e-08
2.267185e-05
6.650709e-08
6.2642328e-08
2.2605149e-05
6.6990752e-08
6.1532366e-08
2.2538888e-05
6.8686043e-08
6.1499906e-08
2.2471121e-05
7.2226953e-08
6.4845113e-08
7.6722825e-08
9.8461313e-08
0.0001051979
1.3340884e-06
6.4961221e-06
9.9496561e-05
2.3731022e-06
6.6011947e-06
9.4262459e-05
2.9019223e-06
6.1610799e-06
8.9251186e-05
3.0856641e-06
5.9094196e-06
8.4493498e-05
3.0947347e-06
5.6224614e-06
8.0033635e-05
2.9846657e-06
5.265134e-06
7.5876907e-05
2.7790155e-06
4.8792667e-06
7.2014635e-05
2.5106843e-06
4.4927895e-06
6.8436293e-05
2.2128728e-06
4.1169489e-06
6.5131387e-05
1.9107259e-06
3.7575291e-06
6.208941e-05
1.6217321e-06
3.4186596e-06
5.9299432e-05
1.3573878e-06
3.1029661e-06
5.6749589e-05
1.1240344e-06
2.8116386e-06
5.4426788e-05
9.2377945e-07
2.5448158e-06
5.2316754e-05
7.5572798e-07
2.3019466e-06
5.0404313e-05
6.1717853e-07
2.0820302e-06
4.8673788e-05
5.0454351e-07
1.8837772e-06
4.7109414e-05
4.1397182e-07
1.7057274e-06
4.5695713e-05
3.4173649e-07
1.5463363e-06
4.4417792e-05
2.8445144e-07
1.4040359e-06
4.3261575e-05
2.3917112e-07
1.2772781e-06
4.2213952e-05
2.0341502e-07
1.1645652e-06
4.1262871e-05
1.7514741e-07
1.0644719e-06
4.039737e-05
1.527323e-07
9.7565901e-07
3.9607583e-05
1.3487527e-07
8.9688144e-07
3.8884688e-05
1.205557e-07
8.2701638e-07
3.8220848e-05
1.0901093e-07
7.6501856e-07
3.7609155e-05
9.9633873e-08
7.0994486e-07
3.7043542e-05
9.1977471e-08
6.6095089e-07
3.6518702e-05
8.5705825e-08
6.1728286e-07
3.6030009e-05
8.0552394e-08
5.7827309e-07
3.5573433e-05
7.6308284e-08
5.4333416e-07
3.5145475e-05
7.2811255e-08
5.1195029e-07
3.4743091e-05
6.9934114e-08
4.8367023e-07
3.4363641e-05
6.7575409e-08
4.5810068e-07
3.4004828e-05
6.5652895e-08
4.3489998e-07
3.3664659e-05
6.4098608e-08
4.1377212e-07
3.3341393e-05
6.2855914e-08
3.9446097e-07
3.3033513e-05
6.1877003e-08
3.767453e-07
3.2739693e-05
6.1121092e-08
3.6043424e-07
3.2458768e-05
6.0553077e-08
3.4536327e-07
3.2189712e-05
6.0142678e-08
3.3139058e-07
3.1931622e-05
5.9863664e-08
3.1839378e-07
3.1683696e-05
5.9693137e-08
3.0626737e-07
3.1445219e-05
5.9611198e-08
2.9492012e-07
3.1215555e-05
5.9600629e-08
2.8427316e-07
3.0994132e-05
5.9646549e-08
2.7425807e-07
3.0780436e-05
5.9736175e-08
2.6481537e-07
3.0574002e-05
5.9858698e-08
2.5589335e-07
3.0374407e-05
6.0004945e-08
2.4744665e-07
3.0181267e-05
6.0167626e-08
2.3943547e-07
2.9994229e-05
6.0341275e-08
2.3182487e-07
2.9812971e-05
6.0521794e-08
2.2458372e-07
2.9637193e-05
6.0704455e-08
2.1768454e-07
2.9466629e-05
6.0867286e-08
2.1110457e-07
2.9301024e-05
6.1017013e-08
2.0482181e-07
2.914014e-05
6.1160879e-08
1.9881568e-07
2.8983756e-05
6.1294956e-08
1.9306838e-07
2.8831669e-05
6.1415481e-08
1.8756387e-07
2.8683688e-05
6.1520942e-08
1.8228763e-07
2.8539633e-05
6.161052e-08
1.7722633e-07
2.8399336e-05
6.1683784e-08
1.7236783e-07
2.8262639e-05
6.1740481e-08
1.6770087e-07
2.8129394e-05
6.1780668e-08
1.6321518e-07
2.7999461e-05
6.1803875e-08
1.5890122e-07
2.7872709e-05
6.1807386e-08
1.5475035e-07
2.7749012e-05
6.1793573e-08
1.5075443e-07
2.7628253e-05
6.1764829e-08
1.4690557e-07
2.7510319e-05
6.1721011e-08
1.4319658e-07
2.7395105e-05
6.1662094e-08
1.3962083e-07
2.728251e-05
6.1588642e-08
1.3617202e-07
2.7172439e-05
6.1501073e-08
1.3284421e-07
2.7064802e-05
6.1399984e-08
1.2963191e-07
2.6959511e-05
6.1285958e-08
1.2652991e-07
2.6856486e-05
6.1159543e-08
1.2353326e-07
2.6755649e-05
6.1021323e-08
1.206373e-07
2.6656924e-05
6.0871849e-08
1.1783765e-07
2.6560242e-05
6.0711701e-08
1.1513011e-07
2.6465535e-05
6.0541383e-08
1.1251076e-07
2.6372738e-05
6.0361311e-08
1.0997578e-07
2.6281791e-05
6.0171931e-08
1.075216e-07
2.6192636e-05
5.9973539e-08
1.051447e-07
2.6105215e-05
5.9766306e-08
1.0284184e-07
2.6019477e-05
5.9550239e-08
1.0060971e-07
2.5935371e-05
5.9325144e-08
9.8445289e-08
2.585285e-05
5.9090478e-08
9.6345373e-08
2.5771868e-05
5.8845484e-08
9.4306913e-08
2.5692384e-05
5.8589013e-08
9.2326732e-08
2.5614357e-05
5.8319798e-08
9.0401426e-08
2.5537753e-05
5.8037058e-08
8.8527313e-08
2.5462539e-05
5.7741633e-08
8.6700227e-08
2.5388689e-05
5.7438394e-08
8.4915148e-08
2.5316184e-05
5.7141398e-08
8.3166612e-08
2.5245017e-05
5.6882565e-08
8.1449642e-08
2.51752e-05
5.6726055e-08
7.9765835e-08
2.510677e-05
5.6787905e-08
7.81492e-08
2.5039729e-05
5.7251605e-08
7.6780984e-08
2.4973573e-05
5.8330953e-08
7.6510208e-08
2.4906079e-05
5.9989494e-08
7.973216e-08
6.0715014e-08
1.1287822e-07
0.00010503672
9.0789372e-07
6.5005614e-06
9.9140653e-05
1.6524914e-06
6.6166801e-06
9.3788329e-05
2.0825242e-06
6.1717217e-06
8.8708526e-05
2.2549373e-06
5.91053e-06
8.3909682e-05
2.278404e-06
5.6151748e-06
7.9437109e-05
2.2074821e-06
5.2497564e-06
7.5296201e-05
2.0645348e-06
4.8553893e-06
7.1474034e-05
1.8722543e-06
4.460597e-06
6.7955013e-05
1.6547667e-06
4.0771269e-06
6.4723621e-05
1.4313505e-06
3.7107669e-06
6.1764423e-05
1.2154297e-06
3.3655007e-06
5.9062056e-05
1.015864e-06
3.0438911e-06
5.6601108e-05
8.3782744e-07
2.7471548e-06
5.4365944e-05
6.8344649e-07
2.475497e-06
5.2340648e-05
5.5258527e-07
2.2284384e-06
5.0509125e-05
4.4366547e-07
2.0050361e-06
4.8855299e-05
3.5433459e-07
1.8040352e-06
4.7363353e-05
2.8193595e-07
1.6239821e-06
4.6017963e-05
2.2381349e-07
1.4633127e-06
4.4804502e-05
1.7749383e-07
1.3204181e-06
4.3709199e-05
1.4078089e-07
1.1936935e-06
4.2719248e-05
1.1179156e-07
1.081575e-06
4.1822875e-05
8.8954531e-08
9.8256585e-07
4.1009364e-05
7.0988007e-08
8.9525472e-07
4.0269054e-05
5.6861817e-08
8.1832381e-07
3.9593306e-05
4.5719133e-08
7.5058475e-07
3.8974405e-05
3.697784e-08
6.9093436e-07
3.8405585e-05
3.0067375e-08
6.3838631e-07
3.7880869e-05
2.4650864e-08
5.920424e-07
3.7395029e-05
2.0439971e-08
5.5110604e-07
3.6943514e-05
1.7190272e-08
5.1487714e-07
3.6522366e-05
1.4716722e-08
4.8273958e-07
3.6128148e-05
1.2874745e-08
4.541539e-07
3.5757883e-05
1.1549882e-08
4.2864941e-07
3.5408991e-05
1.0650745e-08
4.0581703e-07
3.5079238e-05
1.0103627e-08
3.8530228e-07
3.4766689e-05
9.8482674e-09
3.6679878e-07
3.4469668e-05
9.835098e-09
3.5004233e-07
3.4186716e-05
1.0022923e-08
3.3480553e-07
3.3916567e-05
1.0377041e-08
3.208929e-07
3.3658116e-05
1.0868063e-08
3.0813662e-07
3.3410395e-05
1.1470961e-08
2.9639283e-07
3.3172556e-05
1.2164209e-08
2.8553828e-07
3.2943852e-05
1.2929279e-08
2.7546721e-07
3.2723625e-05
1.3750177e-08
2.6608895e-07
3.2511286e-05
1.4613061e-08
2.573257e-07
3.2306316e-05
1.5506221e-08
2.4911067e-07
3.2108246e-05
1.6419596e-08
2.4138621e-07
3.1916658e-05
1.734464e-08
2.341027e-07
3.1731171e-05
1.8274343e-08
2.2721711e-07
3.1551444e-05
1.9203154e-08
2.2069214e-07
3.1377162e-05
2.0127706e-08
2.1449509e-07
3.1208038e-05
2.1048654e-08
2.0859681e-07
3.10438e-05
2.1972771e-08
2.0297052e-07
3.0884232e-05
2.2827811e-08
1.9760736e-07
3.0729103e-05
2.3662943e-08
1.9248225e-07
3.05782e-05
2.449e-08
1.8757379e-07
3.0431331e-05
2.5296297e-08
1.8286761e-07
3.0288318e-05
2.607801e-08
1.7835074e-07
3.0148994e-05
2.6834299e-08
1.7401103e-07
3.0013202e-05
2.7564695e-08
1.6983752e-07
2.9880797e-05
2.8268966e-08
1.6582027e-07
2.975164e-05
2.8947408e-08
1.6195013e-07
2.96256e-05
2.9600765e-08
1.5821898e-07
2.9502557e-05
3.0228589e-08
1.5461922e-07
2.9382396e-05
3.0823604e-08
1.5114465e-07
2.9265007e-05
3.1393136e-08
1.4778878e-07
2.9150287e-05
3.1939592e-08
1.4454535e-07
2.9038137e-05
3.2461885e-08
1.4140897e-07
2.8928465e-05
3.2960073e-08
1.3837462e-07
2.8821181e-05
3.3434731e-08
1.354375e-07
2.8716203e-05
3.3886366e-08
1.325933e-07
2.8613449e-05
3.4315551e-08
1.2983785e-07
2.8512845e-05
3.4722891e-08
1.2716735e-07
2.8414317e-05
3.510897e-08
1.2457817e-07
2.8317797e-05
3.5474459e-08
1.2206681e-07
2.8223219e-05
3.5819906e-08
1.1963009e-07
2.813052e-05
3.6145914e-08
1.1726488e-07
2.803964e-05
3.6453051e-08
1.1496836e-07
2.7950522e-05
3.6741886e-08
1.1273773e-07
2.7863111e-05
3.7012829e-08
1.1057028e-07
2.7777354e-05
3.7266239e-08
1.0846344e-07
2.7693204e-05
3.7502463e-08
1.0641473e-07
2.761061e-05
3.7721591e-08
1.0442173e-07
2.752953e-05
3.7923565e-08
1.0248203e-07
2.7449919e-05
3.8107985e-08
1.0059308e-07
2.7371738e-05
3.827428e-08
9.8752325e-08
2.7294949e-05
3.8421519e-08
9.6956887e-08
2.7219516e-05
3.8548734e-08
9.5203653e-08
2.714541e-05
3.8655114e-08
9.3488599e-08
2.7072603e-05
3.8741144e-08
9.1806942e-08
2.7001079e-05
3.8810249e-08
9.0152331e-08
2.6930832e-05
3.8872125e-08
8.8516581e-08
2.6861876e-05
3.8947404e-08
8.6890558e-08
2.679426e-05
3.9073509e-08
8.5269215e-08
2.6728065e-05
3.9306931e-08
8.3675944e-08
2.6663337e-05
3.9708332e-08
8.2271165e-08
2.659956e-05
4.0272011e-08
8.1836182e-08
2.6534295e-05
4.0698048e-08
8.4555725e-08
3.9620879e-08
1.1507132e-07
0.00010494757
5.6811081e-07
6.5033076e-06
9.8925416e-05
1.0462983e-06
6.6283516e-06
9.3480449e-05
1.3439844e-06
6.1835065e-06
8.8341777e-05
1.4751324e-06
5.9184763e-06
8.3502084e-05
1.4993911e-06
5.6187065e-06
7.9004057e-05
1.4572411e-06
5.2482679e-06
7.4853978e-05
1.3667383e-06
4.8478757e-06
7.1037378e-05
1.2423973e-06
4.4464569e-06
6.7536063e-05
1.0997693e-06
4.0563128e-06
6.4331998e-05
9.519236e-07
3.683491e-06
6.1407318e-05
8.0805757e-07
3.3320524e-06
5.8744339e-05
6.7422203e-07
3.0046209e-06
5.6325632e-05
5.5404397e-07
2.7024907e-06
5.4133973e-05
4.4916749e-07
2.4259383e-06
5.2152298e-05
3.5972399e-07
2.174536e-06
5.0363747e-05
2.8484513e-07
1.9473718e-06
4.875178e-05
2.2310002e-07
1.7432015e-06
4.7300339e-05
1.7281168e-07
1.5605646e-06
4.5994012e-05
1.3226573e-07
1.3978748e-06
4.4818177e-05
9.9840044e-08
1.2534891e-06
4.3759121e-05
7.4075599e-08
1.1257614e-06
4.2804123e-05
5.3707646e-08
1.0130814e-06
4.1941503e-05
3.7671235e-08
9.1390375e-07
4.1160627e-05
2.5096487e-08
8.2676729e-07
4.0451891e-05
1.5294183e-08
7.5030387e-07
3.980679e-05
7.5281614e-09
6.8329173e-07
3.9217543e-05
1.6727349e-09
6.2455201e-07
3.8677513e-05
-3.0331062e-09
5.7313079e-07
3.8180739e-05
-6.6486561e-09
5.2807353e-07
3.7722004e-05
-9.3594664e-09
4.8853452e-07
3.7296777e-05
-1.1371798e-08
4.5378929e-07
3.6901112e-05
-1.2818221e-08
4.2319914e-07
3.6531588e-05
-1.3805294e-08
3.9620481e-07
3.6185236e-05
-1.4417518e-08
3.7231874e-07
3.5859491e-05
-1.4721928e-08
3.5111773e-07
3.5552132e-05
-1.4772654e-08
3.3223577e-07
3.5261237e-05
-1.4613926e-08
3.1535726e-07
3.4985143e-05
-1.4282173e-08
3.002109e-07
3.472241e-05
-1.3807696e-08
2.8656376e-07
3.4471787e-05
-1.3215921e-08
2.7421631e-07
3.4232185e-05
-1.2528229e-08
2.629977e-07
3.4002657e-05
-1.176281e-08
2.5276174e-07
3.3782373e-05
-1.0935265e-08
2.4338339e-07
3.3570606e-05
-1.0058788e-08
2.347556e-07
3.3366714e-05
-9.14477e-09
2.2678674e-07
3.3170131e-05
-8.2028002e-09
2.1939834e-07
3.2980356e-05
-7.2412438e-09
2.12523e-07
3.279694e-05
-6.2668984e-09
2.0610282e-07
3.2619482e-05
-5.2855766e-09
2.0008785e-07
3.2447623e-05
-4.3018273e-09
1.9443478e-07
3.228104e-05
-3.3190761e-09
1.8910587e-07
3.2119438e-05
-2.3383172e-09
1.8406737e-07
3.1962554e-05
-1.3530586e-09
1.7928649e-07
3.1810075e-05
-2.7631588e-10
1.7472763e-07
3.1661878e-05
5.8582494e-10
1.7043906e-07
3.1517732e-05
1.4356092e-09
1.6637294e-07
3.1377429e-05
2.3038065e-09
1.6248957e-07
3.1240792e-05
3.1586264e-09
1.5877484e-07
3.1107656e-05
3.9969781e-09
1.5521716e-07
3.0977867e-05
4.8171279e-09
1.5180547e-07
3.0851284e-05
5.6179528e-09
1.4852968e-07
3.0727774e-05
6.3990169e-09
1.453808e-07
3.0607209e-05
7.160907e-09
1.4235053e-07
3.0489473e-05
7.9059405e-09
1.3943123e-07
3.037445e-05
8.6357456e-09
1.3661579e-07
3.0262049e-05
9.3206881e-09
1.3390397e-07
3.0152163e-05
9.9938392e-09
1.3128567e-07
3.0044697e-05
1.0650373e-08
1.2875511e-07
2.9939564e-05
1.1286721e-08
1.2630828e-07
2.983668e-05
1.1903198e-08
1.2394087e-07
2.9735965e-05
1.2500164e-08
1.2164886e-07
2.9637345e-05
1.3077903e-08
1.1942843e-07
2.9540748e-05
1.3636728e-08
1.1727616e-07
2.9446105e-05
1.417704e-08
1.1518882e-07
2.9353352e-05
1.4699177e-08
1.1316341e-07
2.9262425e-05
1.5203535e-08
1.1119702e-07
2.9173268e-05
1.5690502e-08
1.0928706e-07
2.9085822e-05
1.6160415e-08
1.0743107e-07
2.9000035e-05
1.6613575e-08
1.0562663e-07
2.8915855e-05
1.7050389e-08
1.0387152e-07
2.8833233e-05
1.7471087e-08
1.021636e-07
2.8752123e-05
1.7875954e-08
1.0050081e-07
2.8672479e-05
1.8265099e-08
9.8881121e-08
2.8594259e-05
1.8638545e-08
9.7302507e-08
2.8517424e-05
1.8996231e-08
9.5762944e-08
2.8441934e-05
1.933782e-08
9.4260354e-08
2.8367753e-05
1.9662809e-08
9.2792344e-08
2.8294848e-05
1.997048e-08
9.1356257e-08
2.8223187e-05
2.0260009e-08
8.9948859e-08
2.8152746e-05
2.0530697e-08
8.85659e-08
2.8083503e-05
2.0782603e-08
8.7201787e-08
2.8015447e-05
2.1017507e-08
8.5848684e-08
2.7948582e-05
2.1240704e-08
8.4495827e-08
2.7882937e-05
2.1462719e-08
8.3129506e-08
2.7818574e-05
2.169999e-08
8.1736539e-08
2.7755588e-05
2.1969275e-08
8.0324342e-08
2.7694014e-05
2.2266184e-08
7.9016076e-08
2.7633299e-05
2.2506299e-08
7.8480642e-08
2.7571004e-05
2.2393427e-08
8.0599472e-08
2.0993121e-08
1.0779948e-07
0.00010489986
2.7443376e-07
6.5049155e-06
9.8802772e-05
5.0716633e-07
6.6362236e-06
9.329591e-05
6.5854976e-07
6.1922972e-06
8.8116302e-05
7.2902543e-07
5.9257148e-06
8.3248198e-05