/*--------------------------------*- C++ -*----------------------------------*\
  =========                 |
  \\      /  F ield         | OpenFOAM: The Open Source CFD Toolbox
   \\    /   O peration     | Website:  https://openfoam.org
    \\  /    A nd           | Version:  7
     \\/     M anipulation  |
\*---------------------------------------------------------------------------*/
FoamFile
{
    version     2.0;
    format      ascii;
    class       volVectorField;
    location    "1000/water";
    object      U;
}
// * * * * * * * * * * * * * * * * * * * * * * * * * * * * * * * * * * * * * //

dimensions      [0 1 -1 0 0 0 0];

internalField   nonuniform List<vector> 
54000
(
(0.0090020934 0.00020305973 0.00020444027)
(0.0083186447 0.00023622738 0.00023904411)
(0.0073695241 0.00021363852 0.00021763527)
(0.0063566114 0.00018488016 0.00018965819)
(0.0054486673 0.00015530836 0.00016048633)
(0.0046741594 0.00012529952 0.00013052937)
(0.0040193038 9.7052611e-05 0.00010203017)
(0.0034740067 7.2578999e-05 7.7073287e-05)
(0.0030302461 5.2876127e-05 5.6738328e-05)
(0.0026757323 3.8068151e-05 4.1216512e-05)
(0.0023947254 2.7637703e-05 3.003714e-05)
(0.0021713898 2.0689035e-05 2.2336508e-05)
(0.0019919695 1.6236161e-05 1.7152702e-05)
(0.0018455015 1.3416236e-05 1.3643172e-05)
(0.0017237326 1.158249e-05 1.1179122e-05)
(0.0016206928 1.0304892e-05 9.3455821e-06)
(0.0015321593 9.3257907e-06 7.895716e-06)
(0.0014551546 8.5052957e-06 6.695311e-06)
(0.0013875459 7.7746328e-06 5.6760584e-06)
(0.0013277612 7.1034279e-06 4.8034862e-06)
(0.001274601 6.4798503e-06 4.0581569e-06)
(0.0012271179 5.8999457e-06 3.4261581e-06)
(0.0011845424 5.3625306e-06 2.8950714e-06)
(0.001146235 4.8670214e-06 2.4526308e-06)
(0.0011116558 4.4126e-06 2.086977e-06)
(0.0010803434 3.998013e-06 1.7867445e-06)
(0.0010519002 3.6214604e-06 1.5416128e-06)
(0.0010259819 3.2805945e-06 1.3421846e-06)
(0.001002289 2.973395e-06 1.1797319e-06)
(0.00098056199 2.6979484e-06 1.0463205e-06)
(0.00096057571 2.4519206e-06 9.3658981e-07)
(0.00094213242 2.2325659e-06 8.4693355e-07)
(0.00092505792 2.037386e-06 7.7316644e-07)
(0.00090920047 1.8640888e-06 7.1184198e-07)
(0.00089442818 1.7104623e-06 6.6046744e-07)
(0.0008806259 1.5743823e-06 6.1707373e-07)
(0.00086769294 1.4538619e-06 5.8005303e-07)
(0.00085554128 1.3470716e-06 5.4811503e-07)
(0.00084409387 1.2523494e-06 5.2023911e-07)
(0.00083328322 1.1681983e-06 4.9562855e-07)
(0.00082305015 1.0932613e-06 4.7365399e-07)
(0.00081334267 1.0262299e-06 4.5378417e-07)
(0.00080411486 9.6585887e-07 4.3554567e-07)
(0.00079532615 9.1131101e-07 4.1865097e-07)
(0.0007869407 8.6191737e-07 4.0290723e-07)
(0.00077892675 8.1708293e-07 3.8816864e-07)
(0.00077125603 7.7627641e-07 3.7432128e-07)
(0.0007639033 7.3902615e-07 3.6127614e-07)
(0.00075684598 7.0491416e-07 3.4896367e-07)
(0.00075006373 6.7357561e-07 3.3733107e-07)
(0.00074353822 6.4469392e-07 3.2633755e-07)
(0.00073725294 6.1802551e-07 3.1581845e-07)
(0.00073119314 5.9334725e-07 3.0574327e-07)
(0.00072534528 5.7041897e-07 2.9621157e-07)
(0.00071969687 5.4902511e-07 2.8716731e-07)
(0.00071423653 5.2901494e-07 2.7854399e-07)
(0.00070895386 5.1027317e-07 2.7031124e-07)
(0.00070383928 4.9268693e-07 2.6244759e-07)
(0.00069888397 4.7614479e-07 2.5493192e-07)
(0.00069407976 4.6054994e-07 2.4774337e-07)
(0.00068941911 4.4582027e-07 2.4086368e-07)
(0.00068489502 4.3188493e-07 2.342767e-07)
(0.00068050098 4.1867913e-07 2.2796385e-07)
(0.00067623091 4.0614727e-07 2.2191222e-07)
(0.00067207915 3.9423415e-07 2.1610602e-07)
(0.00066804042 3.8289728e-07 2.1053139e-07)
(0.00066410976 3.7209451e-07 2.0517796e-07)
(0.00066028251 3.6179407e-07 2.0003248e-07)
(0.00065655429 3.5196318e-07 1.9508264e-07)
(0.00065292099 3.4257013e-07 1.9031863e-07)
(0.00064937872 3.3358602e-07 1.8572843e-07)
(0.00064592384 3.24988e-07 1.8130544e-07)
(0.00064255288 3.1675074e-07 1.7704016e-07)
(0.00063926261 3.0885611e-07 1.7292515e-07)
(0.00063604992 3.0128281e-07 1.6895149e-07)
(0.00063291192 2.9401311e-07 1.6511145e-07)
(0.00062984583 2.8703142e-07 1.6139677e-07)
(0.00062684904 2.8032133e-07 1.5780272e-07)
(0.00062391907 2.7387029e-07 1.5432066e-07)
(0.00062105358 2.6766655e-07 1.5094152e-07)
(0.00061825035 2.6169451e-07 1.4766202e-07)
(0.00061550726 2.5594548e-07 1.4446885e-07)
(0.00061282235 2.5040674e-07 1.4135989e-07)
(0.00061019373 2.4506951e-07 1.3832507e-07)
(0.00060761964 2.3991984e-07 1.3535704e-07)
(0.00060509845 2.3494657e-07 1.3244848e-07)
(0.00060262862 2.3013558e-07 1.2959807e-07)
(0.00060020873 2.2547026e-07 1.2680506e-07)
(0.00059783744 2.2093163e-07 1.2407468e-07)
(0.00059551348 2.1649829e-07 1.2143398e-07)
(0.00059323555 2.1214946e-07 1.1892929e-07)
(0.00059100214 2.0787201e-07 1.1666287e-07)
(0.00058881114 2.0369132e-07 1.1483087e-07)
(0.00058665898 1.9973025e-07 1.1382043e-07)
(0.00058453869 1.9638521e-07 1.1441087e-07)
(0.00058243501 1.9487236e-07 1.1837366e-07)
(0.00058031396 1.9977504e-07 1.3094353e-07)
(0.0005781161 2.2258494e-07 1.6397552e-07)
(0.00057566369 1.9706931e-07 1.5080597e-07)
(0.000569062 7.8896446e-07 7.5322584e-07)
(0.0095316863 0.0003313754 0.00022336697)
(0.0092716504 0.00041105942 0.00027052342)
(0.0087756651 0.00040317187 0.00026060062)
(0.0081527518 0.00038218754 0.00024252081)
(0.0075302151 0.00035309574 0.00022101125)
(0.0069425889 0.00031541062 0.00019648834)
(0.006391209 0.00027309198 0.00017102969)
(0.0058791845 0.00023030694 0.00014652546)
(0.0054120202 0.00019001855 0.00012410998)
(0.0049926512 0.00015423459 0.00010436627)
(0.004620592 0.00012408347 8.7479018e-05)
(0.0042931332 9.9809404e-05 7.3327496e-05)
(0.0040063965 8.0956424e-05 6.1601503e-05)
(0.0037559538 6.6672209e-05 5.1918794e-05)
(0.0035372541 5.59858e-05 4.3907444e-05)
(0.003345947 4.7992057e-05 3.7246647e-05)
(0.0031780884 4.1941711e-05 3.1677529e-05)
(0.0030302311 3.7262446e-05 2.699792e-05)
(0.0028994324 3.3540995e-05 2.3051138e-05)
(0.0027832152 3.0490243e-05 1.9714593e-05)
(0.0026795075 2.7915734e-05 1.6890543e-05)
(0.0025865783 2.5687841e-05 1.4499383e-05)
(0.002502978 2.3720893e-05 1.2475016e-05)
(0.0024274871 2.195843e-05 1.0761725e-05)
(0.0023590736 2.0362994e-05 9.3122321e-06)
(0.0022968589 1.8909454e-05 8.0861289e-06)
(0.0022400906 1.7580768e-05 7.0489619e-06)
(0.0021881216 1.6364899e-05 6.1714973e-06)
(0.0021403932 1.5251963e-05 5.4283143e-06)
(0.0020964214 1.4233848e-05 4.7973506e-06)
(0.0020557868 1.3303039e-05 4.2604823e-06)
(0.0020181236 1.2451984e-05 3.8027033e-06)
(0.0019831119 1.1673907e-05 3.4109613e-06)
(0.0019504718 1.0962754e-05 3.0744207e-06)
(0.0019199589 1.0312853e-05 2.7842608e-06)
(0.0018913593 9.718833e-06 2.5331808e-06)
(0.0018644851 9.1756452e-06 2.3150734e-06)
(0.0018391716 8.6785731e-06 2.1248306e-06)
(0.0018152735 8.2232425e-06 1.9581843e-06)
(0.0017926629 7.8056195e-06 1.8115679e-06)
(0.0017712268 7.4219963e-06 1.6820117e-06)
(0.001750865 7.0689373e-06 1.5670703e-06)
(0.0017314886 6.743269e-06 1.4647435e-06)
(0.0017130186 6.4422722e-06 1.3732749e-06)
(0.0016953848 6.1635571e-06 1.2911592e-06)
(0.0016785241 5.9049782e-06 1.21712e-06)
(0.00166238 5.6646096e-06 1.1500844e-06)
(0.0016469019 5.4407247e-06 1.0891484e-06)
(0.001632044 5.2317771e-06 1.0335538e-06)
(0.0016177648 5.0363845e-06 9.8265473e-07)
(0.0016040271 4.8533225e-06 9.3589472e-07)
(0.0015907965 4.6815622e-06 8.9273721e-07)
(0.0015780424 4.5201569e-06 8.5278603e-07)
(0.0015657364 4.3681541e-06 8.1576944e-07)
(0.0015538526 4.2246834e-06 7.8138602e-07)
(0.0015423672 4.0890609e-06 7.4934531e-07)
(0.0015312583 3.9607287e-06 7.1941204e-07)
(0.0015205058 3.8391513e-06 6.9138656e-07)
(0.0015100909 3.7238127e-06 6.6509477e-07)
(0.0014999963 3.6142437e-06 6.4038014e-07)
(0.0014902061 3.5100288e-06 6.1710947e-07)
(0.0014807053 3.4107978e-06 5.9516195e-07)
(0.00147148 3.3162107e-06 5.7442783e-07)
(0.0014625175 3.2259592e-06 5.5481507e-07)
(0.0014538055 3.1397544e-06 5.3623564e-07)
(0.0014453328 3.057334e-06 5.1861322e-07)
(0.0014370889 2.9784701e-06 5.018796e-07)
(0.0014290637 2.9029579e-06 4.8596867e-07)
(0.001421248 2.8306039e-06 4.7082313e-07)
(0.001413633 2.76122e-06 4.5639229e-07)
(0.0014062104 2.6946334e-06 4.4262832e-07)
(0.0013989723 2.6306909e-06 4.294881e-07)
(0.0013919116 2.569245e-06 4.1693025e-07)
(0.0013850211 2.5101624e-06 4.0491996e-07)
(0.0013782945 2.4533186e-06 3.9342507e-07)
(0.0013717253 2.3985949e-06 3.8241178e-07)
(0.0013653078 2.3458844e-06 3.7185118e-07)
(0.0013590364 2.2950858e-06 3.6171709e-07)
(0.0013529058 2.2461043e-06 3.5198389e-07)
(0.001346911 2.1988521e-06 3.4262586e-07)
(0.0013410472 2.1532422e-06 3.3361983e-07)
(0.0013353099 2.1091957e-06 3.2494486e-07)
(0.001329695 2.0666368e-06 3.165787e-07)
(0.0013241983 2.0254892e-06 3.0850064e-07)
(0.001318816 1.985673e-06 3.0069051e-07)
(0.0013135446 1.947114e-06 2.9313045e-07)
(0.0013083808 1.909727e-06 2.8580578e-07)
(0.0013033213 1.8734244e-06 2.78703e-07)
(0.0012983632 1.8381155e-06 2.7181663e-07)
(0.0012935038 1.8037135e-06 2.6515355e-07)
(0.0012887402 1.7701707e-06 2.5874241e-07)
(0.0012840698 1.7375339e-06 2.5264973e-07)
(0.0012794889 1.7061214e-06 2.4701266e-07)
(0.0012749925 1.6769073e-06 2.4211327e-07)
(0.001270572 1.6524678e-06 2.3851864e-07)
(0.0012662098 1.6393321e-06 2.3766054e-07)
(0.0012618709 1.6545769e-06 2.4458206e-07)
(0.0012574959 1.7463709e-06 2.7712489e-07)
(0.0012529717 2.0376708e-06 2.6526424e-07)
(0.0012433358 2.9514822e-06 1.3525337e-06)
(0.0095221617 0.00021179965 0.00022180581)
(0.009269783 0.00029872516 0.00026628967)
(0.0088657772 0.00031669844 0.00025526743)
(0.0083755729 0.000317438 0.00023864265)
(0.0078888426 0.00030841043 0.00021987851)
(0.0074276349 0.00028848207 0.00019850458)
(0.006988258 0.00026048391 0.00017617916)
(0.0065698164 0.00022855168 0.00015444521)
(0.0061756011 0.00019596771 0.00013413534)
(0.0058087146 0.00016504408 0.00011567593)
(0.0054706295 0.00013728621 9.9270837e-05)
(0.0051615551 0.00011345265 8.4947831e-05)
(0.0048808654 9.3684507e-05 7.2600736e-05)
(0.0046272998 7.7712986e-05 6.20449e-05)
(0.0043991196 6.5057024e-05 5.3064542e-05)
(0.0041942886 5.5163887e-05 4.544363e-05)
(0.0040106431 4.7493347e-05 3.8982753e-05)
(0.0038460219 4.1561377e-05 3.3506381e-05)
(0.0036983537 3.6958193e-05 2.8864074e-05)
(0.0035657105 3.3351173e-05 2.4928486e-05)
(0.0034463343 3.04795e-05 2.1592135e-05)
(0.003338646 2.8144768e-05 1.8764099e-05)
(0.003241243 2.6200154e-05 1.6367138e-05)
(0.0031528887 2.4539751e-05 1.4335368e-05)
(0.0030724986 2.3088867e-05 1.261249e-05)
(0.0029991252 2.1796113e-05 1.1150134e-05)
(0.0029319421 2.0626905e-05 9.9064813e-06)
(0.0028702292 1.9558162e-05 8.8458154e-06)
(0.0028133589 1.8574037e-05 7.9385377e-06)
(0.0027607855 1.7663622e-05 7.1598236e-06)
(0.0027120345 1.6818832e-05 6.4890362e-06)
(0.0026666927 1.6033064e-05 5.9090209e-06)
(0.0026243991 1.5301094e-05 5.4052722e-06)
(0.0025848383 1.4618818e-05 4.9656527e-06)
(0.0025477347 1.3982711e-05 4.5801142e-06)
(0.0025128472 1.3389542e-05 4.240326e-06)
(0.002479964 1.283628e-05 3.9393561e-06)
(0.0024488994 1.2320058e-05 3.6714259e-06)
(0.0024194896 1.1838145e-05 3.4317269e-06)
(0.00239159 1.1387939e-05 3.2162513e-06)
(0.0023650729 1.0966985e-05 3.0216614e-06)
(0.0023398248 1.0572999e-05 2.8451746e-06)
(0.0023157449 1.0203874e-05 2.6844747e-06)
(0.0022927433 9.8575799e-06 2.5375947e-06)
(0.0022707398 9.5322156e-06 2.4028637e-06)
(0.002249662 9.2260296e-06 2.2788671e-06)
(0.0022294453 8.937419e-06 2.1644002e-06)
(0.0022100312 8.6649288e-06 2.0584379e-06)
(0.0021913666 8.4072376e-06 1.9601007e-06)
(0.0021734038 8.1631541e-06 1.8686322e-06)
(0.0021560989 7.9316217e-06 1.7833676e-06)
(0.0021394122 7.7117238e-06 1.7037071e-06)
(0.0021233074 7.5026028e-06 1.6291512e-06)
(0.0021077512 7.3033798e-06 1.5592827e-06)
(0.0020927129 7.1131887e-06 1.4937198e-06)
(0.0020781645 6.9314176e-06 1.4321047e-06)
(0.0020640799 6.7576058e-06 1.3741142e-06)
(0.0020504351 6.5912606e-06 1.3194607e-06)
(0.0020372075 6.4318798e-06 1.2678942e-06)
(0.0020243766 6.2790076e-06 1.2191867e-06)
(0.0020119231 6.132241e-06 1.1731325e-06)
(0.001999829 5.9912195e-06 1.1295433e-06)
(0.0019880776 5.8556104e-06 1.0882492e-06)
(0.0019766531 5.7251034e-06 1.0490951e-06)
(0.0019655411 5.5994069e-06 1.0119386e-06)
(0.0019547276 5.4782437e-06 9.7664708e-07)
(0.0019441999 5.3613891e-06 9.4310145e-07)
(0.0019339458 5.2486477e-06 9.1119021e-07)
(0.0019239539 5.1398191e-06 8.808075e-07)
(0.0019142135 5.0347035e-06 8.5185903e-07)
(0.0019047144 4.9331187e-06 8.2425914e-07)
(0.001895447 4.8349001e-06 7.979243e-07)
(0.0018864023 4.7398907e-06 7.7278105e-07)
(0.0018775718 4.6479435e-06 7.4875682e-07)
(0.0018689473 4.5589227e-06 7.257892e-07)
(0.0018605211 4.472699e-06 7.0381414e-07)
(0.0018522861 4.3891525e-06 6.8277773e-07)
(0.0018442353 4.3081691e-06 6.6262535e-07)
(0.0018363621 4.229639e-06 6.4330733e-07)
(0.0018286604 4.1534597e-06 6.2477686e-07)
(0.0018211241 4.0795297e-06 6.0698829e-07)
(0.0018137478 4.0077531e-06 5.8990078e-07)
(0.0018065261 3.9380361e-06 5.734729e-07)
(0.001799454 3.8702794e-06 5.5766668e-07)
(0.0017925266 3.8043807e-06 5.4244773e-07)
(0.0017857396 3.7402362e-06 5.2777896e-07)
(0.0017790885 3.677726e-06 5.1362948e-07)
(0.0017725695 3.6167257e-06 4.9996883e-07)
(0.0017661787 3.5571077e-06 4.8677465e-07)
(0.0017599128 3.4987607e-06 4.7402525e-07)
(0.0017537682 3.4416546e-06 4.6170926e-07)
(0.0017477416 3.3859639e-06 4.4983473e-07)
(0.0017418294 3.3323811e-06 4.3844143e-07)
(0.0017360272 3.2827905e-06 4.2764646e-07)
(0.0017303281 3.241776e-06 4.1776879e-07)
(0.0017247202 3.2200406e-06 4.0999171e-07)
(0.001719183 3.2421553e-06 4.0985035e-07)
(0.001713691 3.3643434e-06 4.4114473e-07)
(0.0017081999 3.7072179e-06 4.7353377e-07)
(0.0016974804 4.4611196e-06 1.8634998e-06)
(0.0095012861 0.00013951169 0.00022248511)
(0.0092133349 0.00022408324 0.00026709763)
(0.0088018509 0.00025700941 0.00025529581)
(0.0083306071 0.00026690691 0.0002382081)
(0.0078754299 0.00026502159 0.00021939837)
(0.0074527063 0.00025295651 0.00019823245)
(0.0070564396 0.00023295893 0.00017634609)
(0.0066827538 0.00020836345 0.0001552305)
(0.006331873 0.00018203353 0.00013558338)
(0.0060047052 0.00015603739 0.00011769036)
(0.0057015056 0.00013180401 0.00010166909)
(0.0054220192 0.00011020725 8.7524314e-05)
(0.0051656909 9.1631899e-05 7.5171986e-05)
(0.0049316845 7.6091185e-05 6.4472618e-05)
(0.0047188814 6.336314e-05 5.5261149e-05)
(0.0045259349 5.310494e-05 4.7366821e-05)
(0.0043513547 4.4932756e-05 4.06249e-05)
(0.0041935865 3.8471359e-05 3.4883032e-05)
(0.0040510752 3.3381245e-05 3.0003995e-05)
(0.0039223115 2.9370507e-05 2.5866182e-05)
(0.0038058643 2.6197261e-05 2.2362867e-05)
(0.0037004012 2.366673e-05 1.9400961e-05)
(0.0036047 2.1625756e-05 1.6899611e-05)
(0.0035176529 1.9956326e-05 1.4788824e-05)
(0.0034382652 1.8569048e-05 1.3008104e-05)
(0.0033656513 1.7397362e-05 1.1504745e-05)
(0.0032990266 1.6392004e-05 1.0233524e-05)
(0.0032376995 1.551624e-05 9.1565346e-06)
(0.0031810636 1.4743887e-05 8.2421119e-06)
(0.0031285885 1.4056152e-05 7.4635748e-06)
(0.0030798115 1.3438894e-05 6.7985199e-06)
(0.0030343294 1.2881151e-05 6.228221e-06)
(0.0029917905 1.2374495e-05 5.7369826e-06)
(0.0029518882 1.1912419e-05 5.3116664e-06)
(0.0029143553 1.1489691e-05 4.9413543e-06)
(0.0028789586 1.1101926e-05 4.6170004e-06)
(0.0028454946 1.0745378e-05 4.3311224e-06)
(0.0028137847 1.0416774e-05 4.0775288e-06)
(0.0027836727 1.0113218e-05 3.8511087e-06)
(0.0027550209 9.8321219e-06 3.6476453e-06)
(0.0027277081 9.5711614e-06 3.4636643e-06)
(0.002701627 9.3282489e-06 3.2963015e-06)
(0.0026766823 9.1015151e-06 3.1431917e-06)
(0.0026527895 8.8892438e-06 3.0023832e-06)
(0.0026298729 8.6898918e-06 2.8722562e-06)
(0.0026078648 8.5020906e-06 2.7514714e-06)
(0.002586704 8.3246165e-06 2.6389096e-06)
(0.0025663358 8.156397e-06 2.5336408e-06)
(0.0025467102 7.9964759e-06 2.4348848e-06)
(0.002527782 7.8440259e-06 2.3419788e-06)
(0.0025095101 7.6983372e-06 2.2543616e-06)
(0.0024918566 7.5588103e-06 2.171544e-06)
(0.0024747871 7.4248996e-06 2.093112e-06)
(0.0024582699 7.296022e-06 2.0187204e-06)
(0.0024422756 7.1714398e-06 1.9480691e-06)
(0.0024267775 7.0509296e-06 1.8808984e-06)
(0.0024117506 6.9343778e-06 1.8169524e-06)
(0.0023971715 6.8214898e-06 1.7560023e-06)
(0.0023830185 6.7119559e-06 1.6978515e-06)
(0.0023692714 6.6055384e-06 1.6423276e-06)
(0.0023559116 6.5020453e-06 1.5892718e-06)
(0.0023429214 6.4013078e-06 1.5385388e-06)
(0.0023302844 6.3031813e-06 1.4899934e-06)
(0.0023179851 6.2075249e-06 1.4435165e-06)
(0.0023060089 6.1142019e-06 1.3989932e-06)
(0.0022943424 6.0230673e-06 1.3563255e-06)
(0.0022829727 5.9340578e-06 1.3154167e-06)
(0.0022718877 5.8471293e-06 1.2761705e-06)
(0.002261076 5.7622046e-06 1.2385019e-06)
(0.0022505267 5.6791998e-06 1.2023307e-06)
(0.0022402296 5.5980425e-06 1.1675833e-06)
(0.0022301752 5.5186718e-06 1.1341884e-06)
(0.0022203542 5.4410301e-06 1.1020808e-06)
(0.002210758 5.3650627e-06 1.0711987e-06)
(0.0022013784 5.2907166e-06 1.0414848e-06)
(0.0021922076 5.2179478e-06 1.0128821e-06)
(0.0021832381 5.1467094e-06 9.8533827e-07)
(0.0021744628 5.0769574e-06 9.5880286e-07)
(0.0021658752 5.0086498e-06 9.3323046e-07)
(0.0021574688 4.9417452e-06 9.0857336e-07)
(0.0021492375 4.876199e-06 8.8479149e-07)
(0.0021411756 4.811966e-06 8.6183944e-07)
(0.0021332776 4.7489985e-06 8.396794e-07)
(0.0021255383 4.6872386e-06 8.1827069e-07)
(0.0021179527 4.6266212e-06 7.9757724e-07)
(0.0021105161 4.5670671e-06 7.7755992e-07)
(0.0021032242 4.5084811e-06 7.5818382e-07)
(0.0020960727 4.4507556e-06 7.3941026e-07)
(0.0020890577 4.3937748e-06 7.2120339e-07)
(0.0020821756 4.3374554e-06 7.0352147e-07)
(0.002075423 4.2818114e-06 6.863223e-07)
(0.0020687967 4.2271313e-06 6.6956043e-07)
(0.0020622937 4.1743534e-06 6.5320315e-07)
(0.002055911 4.1258147e-06 6.3726207e-07)
(0.0020496453 4.0868279e-06 6.2198564e-07)
(0.0020434926 4.0687776e-06 6.0874781e-07)
(0.0020374483 4.0948775e-06 6.0452171e-07)
(0.0020315149 4.2094262e-06 6.3987832e-07)
(0.0020256647 4.4797471e-06 7.1688428e-07)
(0.0020144539 4.905776e-06 2.269525e-06)
(0.0094902877 9.6726607e-05 0.00022289229)
(0.00917661 0.00016632333 0.00026788105)
(0.0087449456 0.00019969046 0.00025550648)
(0.0082664657 0.00021101604 0.00023762681)
(0.00781215 0.0002109939 0.0002181603)
(0.0073950862 0.0002028236 0.00019646328)
(0.0070087986 0.00018827265 0.00017418493)
(0.006648835 0.00016968865 0.0001528463)
(0.0063142174 0.00014929331 0.00013312182)
(0.0060045996 0.00012875288 0.0001152379)
(0.0057192201 0.00010923292 9.925679e-05)
(0.0054570682 9.1490072e-05 8.514891e-05)
(0.0052170782 7.5923401e-05 7.2816211e-05)
(0.0049981259 6.264333e-05 6.2119133e-05)
(0.0047989841 5.156115e-05 5.2900048e-05)
(0.0046183234 4.2472277e-05 4.4997976e-05)
(0.0044547458 3.5118724e-05 3.8256897e-05)
(0.0043068267 2.9230543e-05 3.2530441e-05)
(0.0041731526 2.4550834e-05 2.768434e-05)
(0.0040523509 2.0849109e-05 2.3597363e-05)
(0.0039431142 1.7926911e-05 2.0161346e-05)
(0.0038442168 1.5618599e-05 1.7280681e-05)
(0.0037545253 1.3789364e-05 1.4871532e-05)
(0.0036730042 1.2331758e-05 1.2860863e-05)
(0.0035987172 1.1161538e-05 1.1185211e-05)
(0.0035308246 1.0213367e-05 9.7889735e-06)
(0.0034685786 9.4380834e-06 8.6250714e-06)
(0.0034113173 8.7971286e-06 7.6543146e-06)
(0.0033584589 8.2627211e-06 6.8439398e-06)
(0.0033094933 7.8140819e-06 6.1664542e-06)
(0.0032639753 7.4348244e-06 5.5988453e-06)
(0.0032215172 7.11213e-06 5.121928e-06)
(0.0031817817 6.8360957e-06 4.7197277e-06)
(0.0031444758 6.5990195e-06 4.3789732e-06)
(0.0031093448 6.3947797e-06 4.0886816e-06)
(0.0030761678 6.2184044e-06 3.8397982e-06)
(0.0030447526 6.065796e-06 3.6248792e-06)
(0.003014932 5.9335271e-06 3.4378184e-06)
(0.0029865602 5.8186954e-06 3.273619e-06)
(0.0029595097 5.7188195e-06 3.1282047e-06)
(0.002933669 5.631751e-06 2.998261e-06)
(0.0029089401 5.5556258e-06 2.8810981e-06)
(0.0028852364 5.4888244e-06 2.7745344e-06)
(0.0028624815 5.4299137e-06 2.6768109e-06)
(0.0028406075 5.3776425e-06 2.5865053e-06)
(0.0028195538 5.3309244e-06 2.5024723e-06)
(0.0027992664 5.2888087e-06 2.4237888e-06)
(0.0027796963 5.2504823e-06 2.3497101e-06)
(0.0027607998 5.2152426e-06 2.2796384e-06)
(0.002742537 5.1824972e-06 2.2130855e-06)
(0.0027248717 5.1517655e-06 2.1496545e-06)
(0.0027077708 5.122669e-06 2.0890229e-06)
(0.0026912041 5.0948958e-06 2.03092e-06)
(0.0026751435 5.0680869e-06 1.9751361e-06)
(0.0026595636 5.0410656e-06 1.9215396e-06)
(0.0026444411 5.0142599e-06 1.8699678e-06)
(0.002629754 4.988019e-06 1.8202517e-06)
(0.0026154815 4.9620732e-06 1.772279e-06)
(0.0026016045 4.9361408e-06 1.72596e-06)
(0.0025881054 4.910084e-06 1.6812142e-06)
(0.0025749674 4.8838314e-06 1.637965e-06)
(0.002562175 4.8573387e-06 1.5961458e-06)
(0.0025497136 4.8305811e-06 1.5556917e-06)
(0.0025375693 4.803539e-06 1.5165479e-06)
(0.0025257292 4.7761748e-06 1.478661e-06)
(0.002514181 4.7483833e-06 1.4419857e-06)
(0.0025029134 4.7202756e-06 1.4064832e-06)
(0.0024919154 4.6919148e-06 1.3721017e-06)
(0.0024811765 4.6632909e-06 1.3387964e-06)
(0.002470687 4.6344023e-06 1.3065288e-06)
(0.0024604377 4.6052686e-06 1.2752608e-06)
(0.0024504197 4.5759086e-06 1.244954e-06)
(0.0024406247 4.5463461e-06 1.2155756e-06)
(0.0024310448 4.5166019e-06 1.1870928e-06)
(0.0024216723 4.4866956e-06 1.1594729e-06)
(0.0024125001 4.4566516e-06 1.1326836e-06)
(0.0024035213 4.4264885e-06 1.1066966e-06)
(0.0023947295 4.396228e-06 1.0814819e-06)
(0.0023861184 4.3658892e-06 1.0570126e-06)
(0.0023776821 4.3354859e-06 1.0332597e-06)
(0.0023694149 4.3050329e-06 1.0101968e-06)
(0.0023613115 4.2745346e-06 9.8779512e-07)
(0.0023533667 4.2439928e-06 9.6603088e-07)
(0.0023455757 4.2133957e-06 9.448738e-07)
(0.0023379338 4.182721e-06 9.2429968e-07)
(0.0023304365 4.151926e-06 9.0427564e-07)
(0.0023230798 4.1209537e-06 8.8477169e-07)
(0.0023158598 4.0897262e-06 8.6575185e-07)
(0.0023087726 4.0581562e-06 8.4717244e-07)
(0.002301815 4.026191e-06 8.2898022e-07)
(0.0022949838 3.9938772e-06 8.1110768e-07)
(0.0022882766 3.961529e-06 7.9346233e-07)
(0.002281691 3.9300772e-06 7.7594333e-07)
(0.0022752261 3.9016912e-06 7.5847822e-07)
(0.002268882 3.8809401e-06 7.4124734e-07)
(0.0022626608 3.8766479e-06 7.2572703e-07)
(0.0022565686 3.904305e-06 7.1957985e-07)
(0.0022506189 3.9866557e-06 7.5579889e-07)
(0.0022447715 4.1390999e-06 8.493171e-07)
(0.002233564 4.2832252e-06 2.4122106e-06)
(0.0094843561 6.6886586e-05 0.00022303624)
(0.0091549219 0.00011904886 0.00026838771)
(0.0087072816 0.00014772497 0.00025588053)
(0.0082191888 0.00015892952 0.00023765677)
(0.0077602858 0.00016026049 0.00021787143)
(0.0073412804 0.00015505102 0.00019586613)
(0.0069552494 0.00014481701 0.00017327438)
(0.0065978366 0.00013121473 0.00015165024)
(0.0062677954 0.00011592881 0.00013169211)
(0.0059642872 0.00010028521 0.0001136244)
(0.0056860598 8.5214431e-05 9.7497522e-05)
(0.0054316726 7.1330408e-05 8.3272195e-05)
(0.0051997008 5.8984299e-05 7.0844884e-05)
(0.0049887459 4.8311754e-05 6.0073374e-05)
(0.0047973943 3.9291582e-05 5.0798891e-05)
(0.0046242055 3.1804353e-05 4.2859903e-05)
(0.0044677269 2.5679087e-05 3.6099807e-05)
(0.0043265179 2.0725787e-05 3.037129e-05)
(0.0041991724 1.6756345e-05 2.5538702e-05)
(0.004084339 1.3596837e-05 2.1479084e-05)
(0.0039807371 1.1093752e-05 1.8082324e-05)
(0.0038871692 9.1161632e-06 1.525079e-05)
(0.0038025288 7.5553795e-06 1.2898648e-05)
(0.003725804 6.3231336e-06 1.0950986e-05)
(0.0036560786 5.348818e-06 9.3426779e-06)
(0.0035925304 4.575182e-06 8.0166134e-06)
(0.0035344253 3.9620997e-06 6.9239483e-06)
(0.0034811131 3.4726283e-06 6.0250728e-06)
(0.0034320221 3.0815211e-06 5.2862631e-06)
(0.0033866501 2.7702763e-06 4.6792096e-06)
(0.0033445586 2.5236732e-06 4.1805212e-06)
(0.0033053662 2.3295853e-06 3.7707531e-06)
(0.0032687419 2.1784957e-06 3.4337452e-06)
(0.0032343982 2.0629042e-06 3.1561104e-06)
(0.0032020863 1.9768071e-06 2.9267968e-06)
(0.0031715907 1.9153172e-06 2.7367038e-06)
(0.0031427248 1.8743803e-06 2.5783555e-06)
(0.0031153267 1.8506044e-06 2.4456286e-06)
(0.0030892563 1.8411241e-06 2.3335229e-06)
(0.0030643915 1.8434987e-06 2.2379678e-06)
(0.003040626 1.855644e-06 2.1556643e-06)
(0.0030178671 1.8757799e-06 2.0839517e-06)
(0.0029960335 1.9023799e-06 2.0206948e-06)
(0.0029750538 1.934133e-06 1.9641825e-06)
(0.0029548648 1.9699146e-06 1.913053e-06)
(0.0029354109 2.0087616e-06 1.8662263e-06)
(0.0029166424 2.0498573e-06 1.8228524e-06)
(0.0028985148 2.0925093e-06 1.7822569e-06)
(0.0028809885 2.1361384e-06 1.7439148e-06)
(0.0028640277 2.1802716e-06 1.7074096e-06)
(0.0028476 2.22455e-06 1.672414e-06)
(0.0028316758 2.2687602e-06 1.6386558e-06)
(0.0028162284 2.3128931e-06 1.6058719e-06)
(0.0028012324 2.3570791e-06 1.5738217e-06)
(0.0027866658 2.3978703e-06 1.5431882e-06)
(0.0027725089 2.436235e-06 1.513686e-06)
(0.0027587418 2.47344e-06 1.4848879e-06)
(0.002745346 2.5095351e-06 1.456701e-06)
(0.002732305 2.5443517e-06 1.4291155e-06)
(0.0027196032 2.5777721e-06 1.4021104e-06)
(0.0027072261 2.6097236e-06 1.3756635e-06)
(0.0026951602 2.6401659e-06 1.3497573e-06)
(0.0026833928 2.6690875e-06 1.3243751e-06)
(0.0026719116 2.6965032e-06 1.2995099e-06)
(0.0026607054 2.7223733e-06 1.2751534e-06)
(0.0026497635 2.7463564e-06 1.2513132e-06)
(0.002639076 2.7689088e-06 1.2279782e-06)
(0.0026286333 2.7901466e-06 1.2051281e-06)
(0.0026184262 2.8099935e-06 1.1827602e-06)
(0.0026084461 2.8284312e-06 1.1608705e-06)
(0.0025986849 2.8454939e-06 1.1394491e-06)
(0.0025891348 2.8612184e-06 1.1184906e-06)
(0.0025797885 2.8756493e-06 1.0979859e-06)
(0.002570639 2.8888311e-06 1.0779284e-06)
(0.0025616795 2.9008062e-06 1.0583098e-06)
(0.0025529038 2.9116203e-06 1.0391192e-06)
(0.0025443058 2.9213139e-06 1.0203491e-06)
(0.0025358796 2.9299294e-06 1.0019885e-06)
(0.0025276198 2.9375058e-06 9.8403097e-07)
(0.002519521 2.9440791e-06 9.6646547e-07)
(0.0025115783 2.9496809e-06 9.4927945e-07)
(0.0025037869 2.9543368e-06 9.3246165e-07)
(0.0024961421 2.9580673e-06 9.1599984e-07)
(0.0024886396 2.9608807e-06 8.9987981e-07)
(0.0024812752 2.9627733e-06 8.8408573e-07)
(0.002474045 2.963721e-06 8.6859478e-07)
(0.0024669452 2.9636871e-06 8.5338259e-07)
(0.0024599723 2.9626119e-06 8.3841332e-07)
(0.0024531231 2.96043e-06 8.2364389e-07)
(0.0024463945 2.9570957e-06 8.0900305e-07)
(0.0024397839 2.9526513e-06 7.9439825e-07)
(0.0024332894 2.9473501e-06 7.7969427e-07)
(0.0024269099 2.9419118e-06 7.647097e-07)
(0.0024206457 2.9379214e-06 7.4926078e-07)
(0.0024144993 2.9384187e-06 7.3336585e-07)
(0.0024084767 2.9484948e-06 7.1826471e-07)
(0.0024025877 2.9751247e-06 7.1113297e-07)
(0.002396846 3.0234618e-06 7.4331299e-07)
(0.0023911946 3.080831e-06 8.3046612e-07)
(0.0023803644 3.0574268e-06 2.2999441e-06)
(0.0094810492 4.4090136e-05 0.00022308885)
(0.0091422796 7.9975483e-05 0.00026874495)
(0.0086839084 0.00010160921 0.00025628771)
(0.0081880903 0.00011101591 0.00023793456)
(0.0077246858 0.00011275118 0.00021798622)
(0.0073029895 0.00010953687 0.00019578738)
(0.0069155191 0.00010266029 0.00017296032)
(0.0065579578 9.3267236e-05 0.0001510852)
(0.006229001 8.2539593e-05 0.00013089045)
(0.005927585 7.1446832e-05 0.00011261412)
(0.0056522063 6.0673359e-05 9.6309239e-05)
(0.0054012005 5.0670807e-05 8.1936268e-05)
(0.0051729477 4.1706609e-05 6.9390832e-05)
(0.004965887 3.3898116e-05 5.8529097e-05)
(0.0047784814 2.7249954e-05 4.9189879e-05)
(0.0046092054 2.1693073e-05 4.1208774e-05)
(0.0044565535 1.7117437e-05 3.4426143e-05)
(0.0043190553 1.3395521e-05 2.8691657e-05)
(0.0041952917 1.0397813e-05 2.3866804e-05)
(0.0040839086 8.0023324e-06 1.9826011e-05)
(0.0039836292 6.0997699e-06 1.645686e-05)
(0.0038932634 4.5956628e-06 1.3659716e-05)
(0.0038117126 3.4106734e-06 1.1347012e-05)
(0.0037379734 2.4799301e-06 9.4422907e-06)
(0.0036711359 1.7515116e-06 7.8790889e-06)
(0.0036103859 1.1749048e-06 6.6010323e-06)
(0.0035549935 7.2233965e-07 5.5561196e-06)
(0.0035043108 3.7342534e-07 4.7060688e-06)
(0.0034577717 1.0569753e-07 4.0163444e-06)
(0.0034148763 -9.9088592e-08 3.4574143e-06)
(0.0033751872 -2.5333606e-07 3.0054964e-06)
(0.0033383243 -3.6639989e-07 2.6409751e-06)
(0.0033039576 -4.4577997e-07 2.3475736e-06)
(0.0032718009 -4.974854e-07 2.1118259e-06)
(0.0032416065 -5.2634805e-07 1.9226408e-06)
(0.0032131599 -5.3631097e-07 1.7709145e-06)
(0.0031862758 -5.3064039e-07 1.649202e-06)
(0.0031607936 -5.120631e-07 1.5514412e-06)
(0.0031365743 -4.8287206e-07 1.4727106e-06)
(0.0031134976 -4.450085e-07 1.4090334e-06)
(0.0030914586 -4.0011385e-07 1.3572057e-06)
(0.0030703663 -3.4958049e-07 1.314657e-06)
(0.0030501409 -2.9459686e-07 1.2793319e-06)
(0.0030307129 -2.3617092e-07 1.2495926e-06)
(0.0030120207 -1.7516662e-07 1.2241409e-06)
(0.0029940105 -1.1232142e-07 1.2019534e-06)
(0.0029766343 -4.8269233e-08 1.1822238e-06)
(0.0029598495 1.644888e-08 1.1643218e-06)
(0.0029436181 8.13544e-08 1.1477529e-06)
(0.002927906 1.4602495e-07 1.1321245e-06)
(0.0029126825 2.1005745e-07 1.117119e-06)
(0.0028979201 2.7304874e-07 1.1024404e-06)
(0.0028835935 3.3454149e-07 1.0876611e-06)
(0.0028696773 3.9432368e-07 1.0722018e-06)
(0.0028561514 4.5704834e-07 1.0590091e-06)
(0.0028429997 5.2059975e-07 1.0472575e-06)
(0.0028302035 5.8225223e-07 1.0356072e-06)
(0.0028177449 6.4163833e-07 1.0238004e-06)
(0.0028056084 6.9902005e-07 1.0118738e-06)
(0.0027937799 7.5455977e-07 9.9986874e-07)
(0.0027822461 8.0834997e-07 9.8781049e-07)
(0.0027709946 8.604683e-07 9.7571949e-07)
(0.0027600137 9.1102498e-07 9.6360247e-07)
(0.0027492926 9.6019533e-07 9.51448e-07)
(0.0027388207 1.0080073e-06 9.3926749e-07)
(0.0027285887 1.052852e-06 9.2746528e-07)
(0.0027185878 1.095868e-06 9.1582948e-07)
(0.0027088089 1.1374999e-06 9.042528e-07)
(0.0026992438 1.1777665e-06 8.927592e-07)
(0.0026898847 1.2166571e-06 8.8136582e-07)
(0.0026807244 1.2541707e-06 8.7008063e-07)
(0.0026717559 1.290315e-06 8.5890691e-07)
(0.0026629726 1.3251078e-06 8.4785251e-07)
(0.0026543682 1.3585744e-06 8.3692248e-07)
(0.0026459367 1.3907401e-06 8.2612258e-07)
(0.0026376723 1.4216359e-06 8.1545333e-07)
(0.0026295698 1.4512905e-06 8.0491902e-07)
(0.0026216238 1.4797327e-06 7.9452276e-07)
(0.0026138294 1.50699e-06 7.842629e-07)
(0.002606182 1.5330932e-06 7.7413971e-07)
(0.0025986769 1.5580631e-06 7.6415151e-07)
(0.0025913099 1.5819206e-06 7.5429505e-07)
(0.0025840769 1.6046809e-06 7.4456527e-07)
(0.0025769739 1.6263488e-06 7.349531e-07)
(0.0025699972 1.646922e-06 7.2544776e-07)