/*--------------------------------*- C++ -*----------------------------------*\
  =========                 |
  \\      /  F ield         | OpenFOAM: The Open Source CFD Toolbox
   \\    /   O peration     | Website:  https://openfoam.org
    \\  /    A nd           | Version:  7
     \\/     M anipulation  |
\*---------------------------------------------------------------------------*/
FoamFile
{
    version     2.0;
    format      ascii;
    class       surfaceScalarField;
    location    "1400/water";
    object      phi;
}
// * * * * * * * * * * * * * * * * * * * * * * * * * * * * * * * * * * * * * //

dimensions      [1 0 -1 0 0 0 0];

internalField   nonuniform List<scalar> 
156660
(
9.9057239e-05
6.0010402e-06
6.0528092e-06
8.6847497e-05
6.0555113e-06
6.1542307e-06
7.5687891e-05
5.5111363e-06
5.6484701e-06
6.5441704e-05
5.0404181e-06
5.2057689e-06
5.6267661e-05
4.4956436e-06
4.6783992e-06
4.8318019e-05
3.8797648e-06
4.0698777e-06
4.1624776e-05
3.2524448e-06
3.4407981e-06
3.6124897e-05
2.660462e-06
2.839417e-06
3.1692235e-05
2.1345127e-06
2.2981489e-06
2.8162841e-05
1.6926975e-06
1.8366964e-06
2.5361437e-05
1.3399933e-06
1.4614113e-06
2.3124664e-05
1.0698476e-06
1.1669256e-06
2.1315127e-05
8.6875419e-07
9.4078226e-07
1.9825714e-05
7.2110064e-07
7.6831274e-07
1.8577278e-05
6.1248248e-07
6.3595306e-07
1.7513255e-05
5.3125219e-07
5.3277148e-07
1.6593744e-05
4.6879723e-07
4.5071348e-07
1.5790433e-05
4.1913717e-07
3.8417385e-07
1.5082784e-05
3.7829069e-07
3.2935847e-07
1.4455417e-05
3.4367128e-07
2.8369563e-07
1.3896409e-05
3.1361411e-07
2.4539334e-07
1.339622e-05
2.870445e-07
2.1314452e-07
1.2947015e-05
2.632603e-07
1.859451e-07
1.2542237e-05
2.4179369e-07
1.6298459e-07
1.2176318e-05
2.2232209e-07
1.435969e-07
1.1844484e-05
2.0461481e-07
1.272188e-07
1.1542609e-05
1.8849496e-07
1.1337972e-07
1.1267116e-05
1.7381573e-07
1.0167791e-07
1.1014892e-05
1.6046274e-07
9.1760819e-08
1.0783252e-05
1.4833968e-07
8.3300599e-08
1.0569851e-05
1.3734902e-07
7.6052147e-08
1.0372614e-05
1.273886e-07
6.9848329e-08
1.0189731e-05
1.1836807e-07
6.4514852e-08
1.001963e-05
1.1020449e-07
5.9896647e-08
9.8609388e-06
1.0281924e-07
5.5871652e-08
9.7124594e-06
9.6137954e-08
5.2341381e-08
9.5731439e-06
9.0091173e-08
4.9224352e-08
9.4420759e-06
8.4614502e-08
4.645358e-08
9.3184531e-06
7.9648662e-08
4.3974138e-08
9.2015723e-06
7.5139718e-08
4.1741061e-08
9.0908166e-06
7.1038161e-08
3.9717555e-08
8.9856431e-06
6.7301141e-08
3.7872322e-08
8.8855707e-06
6.3894281e-08
3.6178146e-08
8.7901757e-06
6.0780107e-08
3.4614921e-08
8.6990829e-06
5.7926146e-08
3.316664e-08
8.611959e-06
5.530372e-08
3.1820154e-08
8.5285072e-06
5.2887467e-08
3.0564404e-08
8.4484618e-06
5.0655067e-08
2.9390269e-08
8.3715848e-06
4.8587041e-08
2.8290007e-08
8.2976614e-06
4.6666181e-08
2.7257188e-08
8.2264975e-06
4.4877469e-08
2.6286403e-08
8.1579202e-06
4.3208788e-08
2.5368516e-08
8.0917731e-06
4.164905e-08
2.449805e-08
8.0279107e-06
4.0186986e-08
2.3675341e-08
7.9662005e-06
3.8812645e-08
2.2897501e-08
7.9065219e-06
3.7518381e-08
2.2160247e-08
7.8487639e-06
3.629782e-08
2.1460135e-08
7.7928241e-06
3.5145154e-08
2.0794576e-08
7.7386083e-06
3.4054681e-08
2.0161164e-08
7.6860293e-06
3.3021367e-08
1.9557688e-08
7.6350062e-06
3.2040813e-08
1.8982266e-08
7.5854641e-06
3.1109048e-08
1.8433075e-08
7.537333e-06
3.0222604e-08
1.7908472e-08
7.4905478e-06
2.9378218e-08
1.7406993e-08
7.4450476e-06
2.8572997e-08
1.6927216e-08
7.4007755e-06
2.7804244e-08
1.6467796e-08
7.3576783e-06
2.7069629e-08
1.6027644e-08
7.3157056e-06
2.6367075e-08
1.560562e-08
7.2748103e-06
2.569465e-08
1.5200665e-08
7.2349479e-06
2.5050561e-08
1.4811824e-08
7.1960766e-06
2.4433084e-08
1.4438202e-08
7.158157e-06
2.3840687e-08
1.4078948e-08
7.1211518e-06
2.3271913e-08
1.373331e-08
7.0850258e-06
2.2725491e-08
1.3400542e-08
7.0497457e-06
2.2200206e-08
1.3079935e-08
7.0152798e-06
2.169492e-08
1.2770904e-08
6.9815985e-06
2.1208608e-08
1.2472754e-08
6.9486733e-06
2.0740242e-08
1.2184927e-08
6.9164775e-06
2.0288996e-08
1.1906807e-08
6.8849858e-06
1.9853958e-08
1.1637839e-08
6.8541739e-06
1.9434374e-08
1.1377448e-08
6.8240194e-06
1.9029485e-08
1.1125116e-08
6.7945006e-06
1.8638492e-08
1.0880252e-08
6.7655975e-06
1.826077e-08
1.0642297e-08
6.7372912e-06
1.7895563e-08
1.0410779e-08
6.7095641e-06
1.7542115e-08
1.01851e-08
6.6823995e-06
1.7199625e-08
9.9648649e-09
6.6557824e-06
1.6867289e-08
9.7498324e-09
6.6296983e-06
1.6544159e-08
9.5399623e-09
6.6041331e-06
1.6229276e-08
9.3359904e-09
6.5790714e-06
1.5921987e-08
9.139664e-09
6.554494e-06
1.562235e-08
8.9551087e-09
6.5303708e-06
1.5332564e-08
8.7906979e-09
6.5066467e-06
1.5060448e-08
8.6635785e-09
6.4832094e-06
1.4827811e-08
8.6095164e-09
6.4598103e-06
1.4693094e-08
8.7060096e-09
6.4358388e-06
1.482641e-08
9.1451663e-09
6.4096303e-06
1.5741761e-08
1.0466767e-08
6.3782855e-06
1.8026548e-08
1.3318241e-08
3.230022e-08
2.7923536e-08
0.00010646494
4.1872385e-06
6.4599816e-06
0.0001002019
5.695418e-06
6.6231353e-06
9.3659588e-05
5.7790389e-06
6.2744098e-06
8.7011589e-05
5.6514782e-06
6.0369387e-06
8.0422927e-05
5.3669119e-06
5.7173941e-06
7.4094022e-05
4.9022832e-06
5.3063862e-06
6.8167026e-05
4.3278135e-06
4.8516273e-06
6.2722565e-05
3.717891e-06
4.387032e-06
5.7799049e-05
3.1243144e-06
3.9337145e-06
5.3403345e-05
2.5820689e-06
3.5063329e-06
4.9517402e-05
2.1121062e-06
3.1138299e-06
4.6105482e-05
1.7220197e-06
2.7597474e-06
4.3121558e-05
1.4089355e-06
2.4437429e-06
4.0515558e-05
1.1637552e-06
2.163346e-06
3.8237948e-05
9.748585e-07
1.9152336e-06
3.6242683e-05
8.3055975e-07
1.6959573e-06
3.4488759e-05
7.2043698e-07
1.5022849e-06
3.2940716e-05
6.3586296e-07
1.3313172e-06
3.1568463e-05
5.7005006e-07
1.1804931e-06
3.0346733e-05
5.1784897e-07
1.0475522e-06
2.9254398e-05
4.7545954e-07
9.3049033e-07
2.8273782e-05
4.4013957e-07
8.2752024e-07
2.7390054e-05
4.0994897e-07
7.3704011e-07
2.6590699e-05
3.8353958e-07
6.5760855e-07
2.5865102e-05
3.599889e-07
5.8793069e-07
2.5204197e-05
3.3867633e-07
5.268426e-07
2.4600205e-05
3.1918357e-07
4.7330347e-07
2.4046429e-05
3.0120191e-07
4.2639012e-07
2.3537072e-05
2.8455207e-07
3.8526713e-07
2.3067119e-05
2.6911099e-07
3.4918241e-07
2.2632208e-05
2.5478164e-07
3.1747787e-07
2.2228528e-05
2.414738e-07
2.895953e-07
2.1852744e-05
2.2911074e-07
2.6504124e-07
2.1501947e-05
2.1762894e-07
2.4337259e-07
2.1173591e-05
2.0696951e-07
2.2420573e-07
2.0865444e-05
1.9707569e-07
2.0720866e-07
2.0575549e-05
1.8789254e-07
1.92094e-07
2.0302183e-05
1.7936724e-07
1.7861345e-07
2.0043829e-05
1.714491e-07
1.6655326e-07
1.979915e-05
1.6408982e-07
1.5572942e-07
1.956696e-05
1.5724382e-07
1.4598404e-07
1.934621e-05
1.5086897e-07
1.3718217e-07
1.9135969e-05
1.4492652e-07
1.2920881e-07
1.8935407e-05
1.3937906e-07
1.2196305e-07
1.8743783e-05
1.341923e-07
1.1535762e-07
1.8560435e-05
1.2933509e-07
1.0931726e-07
1.8384766e-05
1.2477906e-07
1.0377716e-07
1.8216241e-05
1.2049852e-07
9.8681274e-08
1.8054377e-05
1.1647011e-07
9.3981307e-08
1.7898734e-05
1.1267292e-07
8.9635425e-08
1.7748917e-05
1.0908821e-07
8.5606977e-08
1.7604563e-05
1.0570005e-07
8.1862419e-08
1.7465345e-05
1.024934e-07
7.8373292e-08
1.7330962e-05
9.9452989e-08
7.5116965e-08
1.7201138e-05
9.6564404e-08
7.2072716e-08
1.7075619e-05
9.3816625e-08
6.922114e-08
1.695417e-05
9.1201104e-08
6.6545114e-08
1.6836577e-05
8.8709103e-08
6.4029537e-08
1.6722638e-05
8.6331977e-08
6.1661035e-08
1.661217e-05
8.406177e-08
5.9427684e-08
1.6505001e-05
8.1891533e-08
5.731882e-08
1.640097e-05
7.9814906e-08
5.532486e-08
1.6299929e-05
7.7826129e-08
5.3437124e-08
1.620174e-05
7.5919859e-08
5.1647933e-08
1.6106272e-05
7.4091047e-08
4.9950142e-08
1.6013404e-05
7.2334993e-08
4.8337393e-08
1.5923022e-05
7.0647737e-08
4.6803865e-08
1.5835019e-05
6.9025723e-08
4.5344265e-08
1.5749294e-05
6.7465535e-08
4.395372e-08
1.5665753e-05
6.5963786e-08
4.2627693e-08
1.5584307e-05
6.4517367e-08
4.1362161e-08
1.5504871e-05
6.3123433e-08
4.0153343e-08
1.5427365e-05
6.1779306e-08
3.8997802e-08
1.5351716e-05
6.0482556e-08
3.7892281e-08
1.5277852e-05
5.923081e-08
3.6833866e-08
1.5205705e-05
5.802201e-08
3.5819738e-08
1.5135212e-05
5.6853984e-08
3.4847366e-08
1.5066313e-05
5.5724968e-08
3.391433e-08
1.499895e-05
5.4633097e-08
3.3018393e-08
1.493307e-05
5.3576747e-08
3.2157411e-08
1.4868621e-05
5.2554202e-08
3.1329435e-08
1.4805554e-05
5.1563907e-08
3.0532432e-08
1.4743823e-05
5.0604445e-08
2.9764678e-08
1.4683386e-05
4.9674309e-08
2.9024394e-08
1.4624199e-05
4.8771819e-08
2.8309882e-08
1.4566226e-05
4.7895459e-08
2.7619571e-08
1.4509431e-05
4.7043508e-08
2.6952007e-08
1.4453778e-05
4.6214144e-08
2.6305771e-08
1.4399237e-05
4.5405422e-08
2.5679894e-08
1.4345777e-05
4.4615706e-08
2.5073755e-08
1.4293367e-05
4.3844261e-08
2.4487705e-08
1.4241972e-05
4.3092867e-08
2.3923746e-08
1.4191548e-05
4.2369892e-08
2.3387133e-08
1.4142019e-05
4.1699329e-08
2.2889642e-08
1.4093249e-05
4.1141659e-08
2.2456635e-08
1.4044951e-05
4.084463e-08
2.2146525e-08
1.3996485e-05
4.1169195e-08
2.212304e-08
1.3946229e-05
4.3012295e-08
2.2985424e-08
1.389015e-05
4.8540276e-08
2.5565823e-08
6.3281525e-08
5.0000841e-08
0.00010603565
2.7876425e-06
6.4750379e-06
0.00010074799
4.4145412e-06
6.5685292e-06
9.5493515e-05
4.8594028e-06
6.1741158e-06
9.0256432e-05
4.930369e-06
5.9581921e-06
8.5101366e-05
4.8311767e-06
5.6908012e-06
8.0102875e-05
4.5561761e-06
5.3445981e-06
7.5322251e-05
4.1469521e-06
4.9614853e-06
7.0803266e-05
3.6678925e-06
4.5689837e-06
6.6576264e-05
3.1701903e-06
4.1811255e-06
6.2660725e-05
2.6900109e-06
3.8075976e-06
5.9065443e-05
2.2519318e-06
3.4554566e-06
5.5788936e-05
1.8697304e-06
3.1287958e-06
5.2820978e-05
1.5477473e-06
2.8291458e-06
5.014479e-05
1.2836302e-06
2.5563139e-06
4.7739304e-05
1.07123e-06
2.3091141e-06
4.5581183e-05
9.0281508e-07
2.0858661e-06
4.3646423e-05
7.7048781e-07
1.884709e-06
4.1911533e-05
6.6697373e-07
1.7037792e-06
4.0354306e-05
5.8598197e-07
1.541295e-06
3.8954268e-05
5.2230225e-07
1.3955849e-06
3.769288e-05
4.7175605e-07
1.265091e-06
3.6553576e-05
4.3107981e-07
1.1483634e-06
3.552169e-05
3.9778207e-07
1.0440533e-06
3.4584322e-05
3.6999884e-07
9.5090828e-07
3.3730181e-05
3.4635983e-07
8.6777017e-07
3.2949411e-05
3.2587761e-07
7.9356872e-07
3.2233419e-05
3.0784047e-07
7.2733485e-07
3.157471e-05
2.9172984e-07
6.6818102e-07
3.0966769e-05
2.7719266e-07
6.1530126e-07
3.0403928e-05
2.63981e-07
5.6797018e-07
2.9881258e-05
2.5190846e-07
5.2554315e-07
2.9394455e-05
2.4082712e-07
4.8745e-07
2.8939761e-05
2.3062157e-07
4.5318327e-07
2.8513895e-05
2.2120153e-07
4.222939e-07
2.8113985e-05
2.1249193e-07
3.9438677e-07
2.7737518e-05
2.0442795e-07
3.691149e-07
2.7382285e-05
1.9695191e-07
3.4617382e-07
2.7046344e-05
1.9001175e-07
3.2529679e-07
2.6727982e-05
1.8355993e-07
3.0625048e-07
2.6425689e-05
1.7755274e-07
2.8883086e-07
2.6138123e-05
1.7195004e-07
2.7285983e-07
2.5864094e-05
1.6671516e-07
2.5818186e-07
2.5602546e-05
1.6181455e-07
2.4466092e-07
2.535253e-05
1.5721708e-07
2.3217766e-07
2.51132e-05
1.5289442e-07
2.2062727e-07
2.4883797e-05
1.4882095e-07
2.0991773e-07
2.4663634e-05
1.4497367e-07
1.999681e-07
2.4452094e-05
1.4133182e-07
1.9070707e-07
2.4248615e-05
1.3787696e-07
1.820715e-07
2.405269e-05
1.3459267e-07
1.7400571e-07
2.3863854e-05
1.3146459e-07
1.6645989e-07
2.3681684e-05
1.2848058e-07
1.5938925e-07
2.3505794e-05
1.2562922e-07
1.5275413e-07
2.3335829e-05
1.228987e-07
1.4651968e-07
2.3171462e-05
1.2027635e-07
1.4065458e-07
2.3012394e-05
1.1775475e-07
1.351302e-07
2.2858345e-05
1.153297e-07
1.2992043e-07
2.2709057e-05
1.1299536e-07
1.250017e-07
2.2564291e-05
1.1074516e-07
1.2035287e-07
2.2423824e-05
1.0857346e-07
1.1595459e-07
2.2287451e-05
1.0647547e-07
1.1178924e-07
2.2154978e-05
1.04447e-07
1.0784081e-07
2.2026226e-05
1.0248418e-07
1.0409459e-07
2.1901025e-05
1.0058351e-07
1.0053715e-07
2.1779218e-05
9.8741534e-08
9.715616e-08
2.1660658e-05
9.6954904e-08
9.3940309e-08
2.1545205e-05
9.5221268e-08
9.0879051e-08
2.1432729e-05
9.3538794e-08
8.7962792e-08
2.1323107e-05
9.1905319e-08
8.5182618e-08
2.1216222e-05
9.0318508e-08
8.2530194e-08
2.1111965e-05
8.8776383e-08
7.9997884e-08
2.1010233e-05
8.7277116e-08
7.7578643e-08
2.0910927e-05
8.5818944e-08
7.526585e-08
2.0813956e-05
8.4400331e-08
7.3053422e-08
2.0719232e-05
8.3019702e-08
7.0935671e-08
2.0626671e-05
8.1675637e-08
6.890721e-08
2.0536195e-05
8.0366814e-08
6.6963098e-08
2.0447729e-05
7.9091956e-08
6.5098751e-08
2.0361203e-05
7.7849837e-08
6.3309732e-08
2.0276548e-05
7.6639235e-08
6.1592021e-08
2.0193702e-05
7.5458998e-08
5.9941755e-08
2.0112602e-05
7.4307952e-08
5.8355233e-08
2.0033193e-05
7.3184916e-08
5.6829048e-08
1.9955419e-05
7.2088612e-08
5.5359938e-08
1.9879228e-05
7.1017625e-08
5.3944847e-08
1.9804572e-05
6.9970417e-08
5.2580743e-08
1.9731406e-05
6.8945254e-08
5.1264826e-08
1.9659685e-05
6.7940133e-08
4.99944e-08
1.9589371e-05
6.6953054e-08
4.8767037e-08
1.9520423e-05
6.5982371e-08
4.7580531e-08
1.9452807e-05
6.5028011e-08
4.6433098e-08
1.9386482e-05
6.4094122e-08
4.5323751e-08
1.9321404e-05
6.3194679e-08
4.4253088e-08
1.9257511e-05
6.236634e-08
4.3225264e-08
1.9194705e-05
6.1695158e-08
4.2253165e-08
1.9132798e-05
6.1374076e-08
4.1377409e-08
1.9071394e-05
6.1822408e-08
4.0750683e-08
1.9009424e-05
6.3924739e-08
4.1057617e-08
1.8944661e-05
6.9304717e-08
4.3998851e-08
7.9170966e-08
7.4661564e-08
0.0001054937
1.9169871e-06
6.4880406e-06
0.00010005365
3.2729596e-06
6.5816334e-06
9.4926077e-05
3.8288995e-06
6.1580776e-06
8.9946373e-05
3.9838108e-06
5.9262629e-06
8.5163276e-05
3.9595077e-06
5.6547657e-06
8.0619137e-05
3.7899368e-06
5.3103784e-06
7.6329462e-05
3.5015547e-06
4.9350725e-06
7.230016e-05
3.1412013e-06
4.5559928e-06
6.8534206e-05
2.7514802e-06
4.1846641e-06
6.5032983e-05
2.3633492e-06
3.8278852e-06
6.1795789e-05
1.9984143e-06
3.490711e-06
5.8818843e-05
1.670376e-06
3.176301e-06
5.6094718e-05
1.3858295e-06
2.8860429e-06
5.3612488e-05
1.1457944e-06
2.6200649e-06
5.1358373e-05
9.476412e-07
2.3777043e-06
4.9316593e-05
7.8676784e-07
2.1578272e-06
4.7470246e-05
6.5779547e-07
1.9590391e-06
4.5802069e-05
5.553254e-07
1.7798252e-06
4.4295042e-05
4.7437116e-07
1.6186378e-06
4.293283e-05
4.1056666e-07
1.473948e-06
4.1700078e-05
3.6023234e-07
1.3442759e-06
4.0582591e-05
3.2035742e-07
1.2282094e-06
3.956742e-05
2.8853734e-07
1.1244154e-06
3.8642881e-05
2.6289063e-07
1.0316467e-06
3.7798527e-05
2.4196984e-07
9.48744e-07
3.7025076e-05
2.24677e-07
8.7465171e-07
3.6314324e-05
2.1018898e-07
8.0840411e-07
3.5659057e-05
1.9788603e-07
7.4911043e-07
3.5052961e-05
1.8731581e-07
6.9597281e-07
3.4490519e-05
1.781487e-07
6.4827381e-07
3.3966922e-05
1.701317e-07
6.053744e-07
3.3477973e-05
1.6306728e-07
5.6670867e-07
3.3020016e-05
1.5680299e-07
5.3177543e-07
3.2589865e-05
1.5122054e-07
5.0013243e-07
3.218474e-05
1.462256e-07
4.7139137e-07
3.1802215e-05
1.4174072e-07
4.4521232e-07
3.1440168e-05
1.3770092e-07
4.2129812e-07
3.1096739e-05
1.3405094e-07
3.9938926e-07
3.0770297e-05
1.3074295e-07
3.7925956e-07
3.0459402e-05
1.277352e-07
3.6071196e-07
3.0162787e-05
1.2499092e-07
3.4357479e-07
2.9879325e-05
1.2247784e-07
3.2769852e-07
2.960802e-05
1.2016733e-07
3.1295272e-07
2.934798e-05
1.1803382e-07
2.9922352e-07
2.9098408e-05
1.1605463e-07
2.8641137e-07
2.885859e-05
1.1420981e-07
2.7442903e-07
2.8627882e-05
1.124819e-07
2.6319997e-07
2.8405701e-05
1.108556e-07
2.5265687e-07
2.819152e-05
1.0931759e-07
2.4274022e-07
2.7984859e-05
1.078565e-07
2.3339755e-07
2.7785279e-05
1.064628e-07
2.2458212e-07
2.7592378e-05
1.0512871e-07
2.1625215e-07
2.740579e-05
1.0384736e-07
2.0837035e-07
2.7225174e-05
1.0261119e-07
2.0090359e-07
2.705022e-05
1.0140749e-07
1.9382258e-07
2.6880641e-05
1.0023385e-07
1.8710042e-07
2.6716166e-05
9.9092368e-08
1.8071223e-07
2.6556546e-05
9.7979967e-08
1.7463555e-07
2.6401548e-05
9.6892513e-08
1.6885013e-07
2.6250957e-05
9.5827077e-08
1.6333742e-07
2.610457e-05
9.4781659e-08
1.5808044e-07
2.5962199e-05
9.3754708e-08
1.5306361e-07
2.5823666e-05
9.2744858e-08
1.4827262e-07
2.5688804e-05
9.1751005e-08
1.4369416e-07
2.5557458e-05
9.077176e-08
1.3931602e-07
2.5429481e-05
8.9805185e-08
1.3512695e-07
2.5304734e-05
8.8851449e-08
1.3111646e-07
2.5183087e-05
8.7911215e-08
1.2727468e-07
2.5064416e-05
8.6983912e-08
1.2359244e-07
2.4948604e-05
8.6068871e-08
1.2006122e-07
2.4835542e-05
8.5165789e-08
1.1667302e-07
2.4725124e-05
8.4274329e-08
1.1342048e-07
2.4617252e-05
8.3394266e-08
1.1029657e-07
2.4511832e-05
8.252547e-08
1.0729479e-07
2.4408775e-05
8.1667789e-08
1.0440903e-07
2.4307997e-05
8.0820991e-08
1.0163342e-07
2.4209416e-05
7.9985041e-08
9.8962632e-08
2.4112956e-05
7.9159753e-08
9.6391533e-08
2.4018546e-05
7.834504e-08
9.3915268e-08
2.3926115e-05
7.7540715e-08
9.1529303e-08
2.3835598e-05
7.6746558e-08
8.9229256e-08
2.3746933e-05
7.5962327e-08
8.7011026e-08
2.366006e-05
7.5187631e-08
8.4870701e-08
2.3574922e-05
7.4421933e-08
8.280453e-08
2.3491466e-05
7.3664618e-08
8.0808897e-08
2.3409641e-05
7.2914653e-08
7.8880335e-08
2.33294e-05
7.2170698e-08
7.7015509e-08
2.3250698e-05
7.1431325e-08
7.5211021e-08
2.3173493e-05
7.0694874e-08
7.3463615e-08
2.3097745e-05
6.9960224e-08
7.1770062e-08
2.3023418e-05
6.9227975e-08
7.0127014e-08
2.2950477e-05
6.8503504e-08
6.8531222e-08
2.2878889e-05
6.7802866e-08
6.6979719e-08
2.2808619e-05
6.7165054e-08
6.5471556e-08
2.2739625e-05
6.6675263e-08
6.4013361e-08
2.267185e-05
6.6507055e-08
6.2642318e-08
2.2605149e-05
6.6990735e-08
6.1532369e-08
2.2538888e-05
6.868607e-08
6.1499899e-08
2.2471121e-05
7.2226993e-08
6.4845091e-08
7.6722849e-08
9.8461306e-08
0.0001051979
1.3340884e-06
6.4961221e-06
9.9496561e-05
2.3731022e-06
6.6011947e-06
9.4262459e-05
2.9019223e-06
6.1610799e-06
8.9251186e-05
3.0856642e-06
5.9094196e-06
8.4493498e-05
3.0947347e-06
5.6224614e-06
8.0033635e-05
2.9846657e-06
5.2651341e-06
7.5876907e-05
2.7790155e-06
4.8792667e-06
7.2014635e-05
2.5106844e-06
4.4927895e-06
6.8436293e-05
2.2128728e-06
4.116949e-06
6.5131387e-05
1.9107259e-06
3.7575292e-06
6.208941e-05
1.6217321e-06
3.4186596e-06
5.9299432e-05
1.3573877e-06
3.1029661e-06
5.6749589e-05
1.1240344e-06
2.8116386e-06
5.4426788e-05
9.2377946e-07
2.5448158e-06
5.2316754e-05
7.5572797e-07
2.3019466e-06
5.0404313e-05
6.1717854e-07
2.0820302e-06
4.8673788e-05
5.0454348e-07
1.8837772e-06
4.7109414e-05
4.1397178e-07
1.7057274e-06
4.5695713e-05
3.4173645e-07
1.5463363e-06
4.4417792e-05
2.8445142e-07
1.4040359e-06
4.3261575e-05
2.3917111e-07
1.2772781e-06
4.2213952e-05
2.0341502e-07
1.1645652e-06
4.1262871e-05
1.751474e-07
1.0644719e-06
4.039737e-05
1.527323e-07
9.7565896e-07
3.9607583e-05
1.3487525e-07
8.9688142e-07
3.8884688e-05
1.2055568e-07
8.270164e-07
3.8220848e-05
1.090109e-07
7.6501856e-07
3.7609155e-05
9.9633837e-08
7.0994487e-07
3.7043542e-05
9.1977442e-08
6.6095085e-07
3.6518702e-05
8.5705833e-08
6.1728288e-07
3.6030009e-05
8.0552377e-08
5.7827308e-07
3.5573433e-05
7.630828e-08
5.4333414e-07
3.5145475e-05
7.2811277e-08
5.1195029e-07
3.4743091e-05
6.9934121e-08
4.8367023e-07
3.4363641e-05
6.7575432e-08
4.5810066e-07
3.4004828e-05
6.5652869e-08
4.3489995e-07
3.3664659e-05
6.4098573e-08
4.1377211e-07
3.3341393e-05
6.2855917e-08
3.9446095e-07
3.3033513e-05
6.1877007e-08
3.7674528e-07
3.2739693e-05
6.1121059e-08
3.6043421e-07
3.2458768e-05
6.0553069e-08
3.4536329e-07
3.2189712e-05
6.0142664e-08
3.3139057e-07
3.1931622e-05
5.9863637e-08
3.1839375e-07
3.1683696e-05
5.9693126e-08
3.0626736e-07
3.1445219e-05
5.9611207e-08
2.9492013e-07
3.1215555e-05
5.9600637e-08
2.8427316e-07
3.0994132e-05
5.9646551e-08
2.7425807e-07
3.0780436e-05
5.9736185e-08
2.648154e-07
3.0574002e-05
5.9858688e-08
2.5589332e-07
3.0374407e-05
6.0004926e-08
2.4744662e-07
3.0181267e-05
6.0167657e-08
2.3943549e-07
2.9994229e-05
6.0341247e-08
2.3182488e-07
2.9812971e-05
6.0521791e-08
2.2458372e-07
2.9637193e-05
6.0704488e-08
2.1768457e-07
2.9466629e-05
6.0867328e-08
2.1110459e-07
2.9301024e-05
6.1017006e-08
2.0482178e-07
2.914014e-05
6.1160889e-08
1.9881568e-07
2.8983756e-05
6.1294949e-08
1.9306839e-07
2.8831669e-05
6.1415464e-08
1.8756389e-07
2.8683688e-05
6.1520948e-08
1.8228766e-07
2.8539633e-05
6.1610549e-08
1.7722635e-07
2.8399336e-05
6.1683768e-08
1.7236785e-07
2.8262639e-05
6.1740463e-08
1.6770092e-07
2.8129394e-05
6.1780675e-08
1.632152e-07
2.7999461e-05
6.1803865e-08
1.5890121e-07
2.7872709e-05
6.1807336e-08
1.5475036e-07
2.7749012e-05
6.1793532e-08
1.5075443e-07
2.7628253e-05
6.1764778e-08
1.4690557e-07
2.7510319e-05
6.1720968e-08
1.431966e-07
2.7395105e-05
6.1662096e-08
1.3962083e-07
2.728251e-05
6.1588609e-08
1.3617201e-07
2.7172439e-05
6.1501036e-08
1.3284422e-07
2.7064802e-05
6.139998e-08
1.2963192e-07
2.6959511e-05
6.128593e-08
1.2652993e-07
2.6856486e-05
6.1159537e-08
1.2353326e-07
2.6755649e-05
6.1021309e-08
1.206373e-07
2.6656924e-05
6.0871883e-08
1.1783766e-07
2.6560242e-05
6.0711725e-08
1.1513012e-07
2.6465535e-05
6.0541378e-08
1.1251076e-07
2.6372738e-05
6.0361323e-08
1.099758e-07
2.6281792e-05
6.0171914e-08
1.0752159e-07
2.6192636e-05
5.9973549e-08
1.0514469e-07
2.6105215e-05
5.9766318e-08
1.0284182e-07
2.6019477e-05
5.9550222e-08
1.0060972e-07
2.5935371e-05
5.9325131e-08
9.8445265e-08
2.585285e-05
5.9090491e-08
9.6345384e-08
2.5771868e-05
5.8845517e-08
9.4306924e-08
2.5692384e-05
5.8589044e-08
9.2326721e-08
2.5614357e-05
5.8319828e-08
9.0401428e-08
2.5537753e-05
5.8037093e-08
8.8527344e-08
2.5462539e-05
5.7741675e-08
8.6700214e-08
2.5388689e-05
5.7438423e-08
8.4915167e-08
2.5316184e-05
5.7141454e-08
8.3166635e-08
2.5245017e-05
5.6882603e-08
8.1449629e-08
2.51752e-05
5.6726038e-08
7.9765819e-08
2.510677e-05
5.6787915e-08
7.8149229e-08
2.5039729e-05
5.7251613e-08
7.6780973e-08
2.4973573e-05
5.8330938e-08
7.6510204e-08
2.4906079e-05
5.9989504e-08
7.9732131e-08
6.0715019e-08
1.1287822e-07
0.00010503672
9.078937e-07
6.5005614e-06
9.9140653e-05
1.6524914e-06
6.6166802e-06
9.3788329e-05
2.0825241e-06
6.1717217e-06
8.8708526e-05
2.2549373e-06
5.91053e-06
8.3909682e-05
2.278404e-06
5.6151748e-06
7.9437109e-05
2.2074821e-06
5.2497564e-06
7.5296201e-05
2.0645348e-06
4.8553893e-06
7.1474034e-05
1.8722543e-06
4.4605969e-06
6.7955013e-05
1.6547667e-06
4.0771269e-06
6.4723621e-05
1.4313505e-06
3.7107669e-06
6.1764423e-05
1.2154298e-06
3.3655007e-06
5.9062056e-05
1.0158641e-06
3.0438911e-06
5.6601108e-05
8.378274e-07
2.7471548e-06
5.4365944e-05
6.8344648e-07
2.475497e-06
5.2340648e-05
5.5258525e-07
2.2284383e-06
5.0509125e-05
4.4366545e-07
2.0050361e-06
4.8855299e-05
3.5433455e-07
1.8040352e-06
4.7363353e-05
2.8193589e-07
1.6239821e-06
4.6017963e-05
2.2381345e-07
1.4633127e-06
4.4804502e-05
1.7749381e-07
1.3204181e-06
4.3709199e-05
1.4078088e-07
1.1936935e-06
4.2719248e-05
1.1179154e-07
1.081575e-06
4.1822875e-05
8.8954489e-08
9.8256583e-07
4.1009364e-05
7.0987978e-08
8.952547e-07
4.0269054e-05
5.6861793e-08
8.183238e-07
3.9593306e-05
4.5719116e-08
7.5058477e-07
3.8974405e-05
3.6977863e-08
6.9093436e-07
3.8405585e-05
3.0067358e-08
6.3838631e-07
3.7880869e-05
2.4650849e-08
5.9204243e-07
3.7395029e-05
2.0439976e-08
5.5110605e-07
3.6943514e-05
1.7190286e-08
5.1487717e-07
3.6522366e-05
1.4716743e-08
4.8273954e-07
3.6128148e-05
1.2874803e-08
4.5415386e-07
3.5757883e-05
1.1549923e-08
4.2864944e-07
3.5408991e-05
1.0650776e-08
4.0581705e-07
3.5079238e-05
1.0103649e-08
3.8530229e-07
3.4766689e-05
9.8482596e-09
3.6679879e-07
3.4469668e-05
9.8350833e-09
3.5004233e-07
3.4186716e-05
1.0022919e-08
3.3480554e-07
3.3916567e-05
1.0377054e-08
3.2089289e-07
3.3658116e-05
1.0868073e-08
3.0813661e-07
3.3410395e-05
1.1470957e-08
2.9639284e-07
3.3172556e-05
1.2164252e-08
2.8553828e-07
3.2943852e-05
1.292929e-08
2.7546717e-07
3.2723625e-05
1.3750187e-08
2.6608895e-07
3.2511286e-05
1.4613069e-08
2.573257e-07
3.2306316e-05
1.5506242e-08
2.4911066e-07
3.2108246e-05
1.6419616e-08
2.413862e-07
3.1916658e-05
1.7344645e-08
2.3410268e-07
3.1731171e-05
1.8274321e-08
2.2721713e-07
3.1551444e-05
1.9203155e-08
2.2069214e-07
3.1377162e-05
2.0127709e-08
2.1449509e-07
3.1208038e-05
2.1048641e-08
2.0859678e-07
3.10438e-05
2.1972748e-08
2.0297054e-07
3.0884232e-05
2.2827848e-08
1.976074e-07
3.0729103e-05
2.3662978e-08
1.9248229e-07
3.05782e-05
2.4490032e-08
1.8757382e-07
3.0431331e-05
2.5296264e-08
1.8286764e-07
3.0288318e-05
2.6077944e-08
1.7835077e-07
3.0148994e-05
2.6834292e-08
1.7401109e-07
3.0013202e-05
2.7564651e-08
1.6983754e-07
2.9880797e-05
2.8268956e-08
1.6582025e-07
2.975164e-05
2.894742e-08
1.6195013e-07
2.96256e-05
2.9600755e-08
1.5821898e-07
2.9502557e-05
3.022854e-08
1.5461919e-07
2.9382396e-05
3.0823607e-08
1.5114466e-07
2.9265007e-05
3.1393109e-08
1.4778877e-07
2.9150287e-05
3.1939573e-08
1.4454537e-07
2.9038137e-05
3.2461863e-08
1.4140902e-07
2.8928465e-05
3.2960069e-08
1.383746e-07
2.8821181e-05
3.3434697e-08
1.3543749e-07
2.8716203e-05
3.3886338e-08
1.325933e-07
2.8613449e-05
3.4315539e-08
1.2983786e-07
2.8512845e-05
3.4722902e-08
1.2716736e-07
2.8414317e-05
3.5108939e-08
1.2457815e-07
2.8317797e-05
3.5474429e-08
1.2206678e-07
2.8223219e-05
3.5819907e-08
1.1963006e-07
2.813052e-05
3.6145909e-08
1.1726492e-07
2.803964e-05
3.6453058e-08
1.1496838e-07
2.7950522e-05
3.6741858e-08
1.1273772e-07
2.7863111e-05
3.7012804e-08
1.1057026e-07
2.7777355e-05
3.7266236e-08
1.084634e-07
2.7693204e-05
3.7502425e-08
1.0641473e-07
2.761061e-05
3.7721592e-08
1.0442174e-07
2.752953e-05
3.7923519e-08
1.0248198e-07
2.744992e-05
3.8107966e-08
1.0059304e-07
2.7371738e-05
3.8274265e-08
9.8752286e-08
2.7294949e-05
3.8421574e-08
9.6956893e-08
2.7219516e-05
3.854873e-08
9.5203631e-08
2.714541e-05
3.8655125e-08
9.3488631e-08
2.7072603e-05
3.8741156e-08
9.1806951e-08
2.7001079e-05
3.8810266e-08
9.0152307e-08
2.6930832e-05
3.8872156e-08
8.851658e-08
2.6861876e-05
3.8947408e-08
8.6890536e-08
2.679426e-05
3.9073549e-08
8.5269189e-08
2.6728065e-05
3.9307002e-08
8.3675937e-08
2.6663337e-05
3.9708334e-08
8.2271157e-08
2.659956e-05
4.0272026e-08
8.1836215e-08
2.6534295e-05
4.0698033e-08
8.4555714e-08
3.9620844e-08
1.1507132e-07
0.00010494757
5.681108e-07
6.5033076e-06
9.8925416e-05
1.0462983e-06
6.6283517e-06
9.3480449e-05
1.3439844e-06
6.1835065e-06
8.8341777e-05
1.4751324e-06
5.9184763e-06
8.3502084e-05
1.4993911e-06
5.6187065e-06
7.9004057e-05
1.4572411e-06
5.2482679e-06
7.4853978e-05
1.3667382e-06
4.8478757e-06
7.1037378e-05
1.2423973e-06
4.4464569e-06
6.7536063e-05
1.0997693e-06
4.0563128e-06
6.4331998e-05
9.5192361e-07
3.683491e-06
6.1407318e-05
8.0805755e-07
3.3320524e-06
5.8744339e-05
6.7422201e-07
3.0046209e-06
5.6325632e-05
5.5404397e-07
2.7024907e-06
5.4133973e-05
4.4916747e-07
2.4259383e-06
5.2152298e-05
3.5972402e-07
2.174536e-06
5.0363747e-05
2.8484512e-07
1.9473718e-06
4.875178e-05
2.2310004e-07
1.7432015e-06
4.7300339e-05
1.7281164e-07
1.5605647e-06
4.5994012e-05
1.3226573e-07
1.3978748e-06
4.4818177e-05
9.9840031e-08
1.2534891e-06
4.3759121e-05
7.4075592e-08
1.1257614e-06
4.2804123e-05
5.3707612e-08
1.0130814e-06
4.1941503e-05
3.7671215e-08
9.1390374e-07
4.1160627e-05
2.5096449e-08
8.267673e-07
4.0451891e-05
1.5294156e-08
7.5030386e-07
3.980679e-05
7.5281527e-09
6.8329174e-07
3.9217543e-05
1.6727213e-09
6.2455202e-07
3.8677513e-05
-3.0330958e-09
5.7313081e-07
3.8180739e-05
-6.6486622e-09
5.2807354e-07
3.7722004e-05
-9.3595032e-09
4.885345e-07
3.7296777e-05
-1.1371806e-08
4.5378929e-07
3.6901112e-05
-1.281823e-08
4.2319911e-07
3.6531588e-05
-1.3805306e-08
3.9620479e-07
3.6185236e-05
-1.4417492e-08
3.7231874e-07
3.5859491e-05
-1.4721887e-08
3.5111778e-07
3.5552132e-05
-1.4772645e-08
3.3223577e-07
3.5261237e-05
-1.4613929e-08
3.1535729e-07
3.4985143e-05
-1.4282176e-08
3.002109e-07
3.472241e-05
-1.3807681e-08
2.8656375e-07
3.4471787e-05
-1.3215877e-08
2.7421632e-07
3.4232185e-05
-1.2528188e-08
2.629977e-07
3.4002657e-05
-1.1762773e-08
2.5276176e-07
3.3782373e-05
-1.0935239e-08
2.4338335e-07
3.3570606e-05
-1.0058794e-08
2.3475556e-07
3.3366714e-05
-9.1447515e-09
2.2678672e-07
3.3170131e-05
-8.2028412e-09
2.1939833e-07
3.2980356e-05
-7.2412293e-09
2.1252297e-07
3.279694e-05
-6.2668932e-09
2.0610281e-07
3.2619482e-05
-5.285534e-09
2.0008785e-07
3.2447623e-05
-4.3018027e-09
1.9443478e-07
3.228104e-05
-3.3190629e-09
1.8910587e-07
3.2119438e-05
-2.3383348e-09
1.8406735e-07
3.1962554e-05
-1.3530769e-09
1.7928648e-07
3.1810075e-05
-2.7637632e-10
1.7472762e-07
3.1661878e-05
5.8580561e-10
1.7043904e-07
3.1517732e-05
1.4355999e-09
1.6637294e-07
3.1377429e-05
2.3037937e-09
1.6248957e-07
3.1240792e-05
3.1586442e-09
1.5877487e-07
3.1107656e-05
3.9969656e-09
1.5521721e-07
3.0977867e-05
4.8171433e-09
1.518055e-07
3.0851284e-05
5.6179533e-09
1.4852969e-07
3.0727774e-05
6.3990204e-09
1.4538076e-07
3.0607209e-05
7.1609244e-09
1.4235056e-07
3.0489473e-05
7.9059257e-09
1.3943123e-07
3.037445e-05
8.6357531e-09
1.3661576e-07
3.0262049e-05
9.3206515e-09
1.3390396e-07
3.0152163e-05
9.9937806e-09
1.3128565e-07
3.0044697e-05
1.0650364e-08
1.2875512e-07
2.9939564e-05
1.1286759e-08
1.263083e-07
2.983668e-05
1.1903217e-08
1.2394089e-07
2.9735965e-05
1.250017e-08
1.2164885e-07
2.9637345e-05
1.3077867e-08
1.1942841e-07
2.9540748e-05
1.3636704e-08
1.1727616e-07
2.9446105e-05
1.4177012e-08
1.151888e-07
2.9353352e-05
1.4699166e-08
1.1316337e-07
2.9262425e-05
1.5203531e-08
1.11197e-07
2.9173268e-05
1.5690481e-08
1.0928709e-07
2.9085822e-05
1.6160388e-08
1.0743107e-07
2.9000035e-05
1.6613576e-08
1.0562663e-07
2.8915855e-05
1.7050363e-08
1.0387155e-07
2.8833233e-05
1.7471101e-08
1.0216361e-07
2.8752123e-05
1.7875952e-08
1.0050079e-07
2.8672479e-05
1.826508e-08
9.8881103e-08
2.8594259e-05
1.8638535e-08
9.7302477e-08
2.8517424e-05
1.899622e-08
9.5762953e-08
2.8441934e-05
1.9337787e-08
9.4260333e-08
2.8367753e-05
1.9662805e-08
9.2792335e-08
2.8294848e-05
1.9970478e-08
9.135627e-08
2.8223187e-05
2.0260006e-08
8.994887e-08
2.8152746e-05
2.0530707e-08
8.8565927e-08
2.8083503e-05
2.0782628e-08
8.720179e-08
2.8015447e-05
2.101753e-08
8.5848722e-08
2.7948582e-05
2.1240718e-08
8.4495835e-08
2.7882937e-05
2.1462732e-08
8.3129519e-08
2.7818574e-05
2.1699988e-08
8.1736528e-08
2.7755588e-05
2.1969279e-08
8.0324343e-08
2.7694014e-05
2.2266153e-08
7.9016058e-08
2.7633299e-05
2.2506276e-08
7.8480671e-08
2.7571004e-05
2.2393435e-08
8.0599514e-08
2.0993121e-08
1.077995e-07
0.00010489986
2.7443378e-07
6.5049155e-06
9.8802772e-05
5.0716633e-07
6.6362236e-06
9.329591e-05
6.5854976e-07
6.1922972e-06
8.8116302e-05
7.2902548e-07
5.9257148e-06
8.3248198e-05
7.4378815e-07