/*--------------------------------*- C++ -*----------------------------------*\
  =========                 |
  \\      /  F ield         | OpenFOAM: The Open Source CFD Toolbox
   \\    /   O peration     | Website:  https://openfoam.org
    \\  /    A nd           | Version:  7
     \\/     M anipulation  |
\*---------------------------------------------------------------------------*/
FoamFile
{
    version     2.0;
    format      ascii;
    class       surfaceScalarField;
    location    "1450/water";
    object      phi;
}
// * * * * * * * * * * * * * * * * * * * * * * * * * * * * * * * * * * * * * //

dimensions      [1 0 -1 0 0 0 0];

internalField   nonuniform List<scalar> 
156660
(
9.9057239e-05
6.0010402e-06
6.0528092e-06
8.6847498e-05
6.0555113e-06
6.1542307e-06
7.5687891e-05
5.5111363e-06
5.6484701e-06
6.5441704e-05
5.0404181e-06
5.2057689e-06
5.6267661e-05
4.4956436e-06
4.6783992e-06
4.8318019e-05
3.8797648e-06
4.0698777e-06
4.1624776e-05
3.2524448e-06
3.4407981e-06
3.6124897e-05
2.660462e-06
2.839417e-06
3.1692235e-05
2.1345127e-06
2.2981489e-06
2.8162841e-05
1.6926975e-06
1.8366964e-06
2.5361437e-05
1.3399934e-06
1.4614113e-06
2.3124664e-05
1.0698477e-06
1.1669256e-06
2.1315127e-05
8.6875423e-07
9.4078226e-07
1.9825714e-05
7.2110066e-07
7.6831273e-07
1.8577278e-05
6.1248245e-07
6.3595303e-07
1.7513255e-05
5.3125221e-07
5.3277148e-07
1.6593744e-05
4.6879723e-07
4.5071347e-07
1.5790433e-05
4.1913718e-07
3.8417388e-07
1.5082784e-05
3.7829068e-07
3.2935849e-07
1.4455417e-05
3.4367127e-07
2.8369564e-07
1.3896409e-05
3.1361406e-07
2.4539334e-07
1.339622e-05
2.8704447e-07
2.1314454e-07
1.2947015e-05
2.6326031e-07
1.8594509e-07
1.2542237e-05
2.4179366e-07
1.6298463e-07
1.2176318e-05
2.2232206e-07
1.4359691e-07
1.1844484e-05
2.0461478e-07
1.2721881e-07
1.1542609e-05
1.8849493e-07
1.1337975e-07
1.1267116e-05
1.7381575e-07
1.0167796e-07
1.1014892e-05
1.6046272e-07
9.1760855e-08
1.0783252e-05
1.4833967e-07
8.330059e-08
1.0569851e-05
1.3734903e-07
7.6052122e-08
1.0372614e-05
1.2738866e-07
6.9848312e-08
1.0189731e-05
1.1836811e-07
6.4514807e-08
1.001963e-05
1.1020448e-07
5.9896624e-08
9.8609388e-06
1.0281922e-07
5.587163e-08
9.7124595e-06
9.6137949e-08
5.2341351e-08
9.5731439e-06
9.0091179e-08
4.922435e-08
9.4420759e-06
8.4614486e-08
4.645357e-08
9.3184531e-06
7.9648672e-08
4.3974113e-08
9.2015723e-06
7.513972e-08
4.174108e-08
9.0908166e-06
7.103815e-08
3.9717543e-08
8.9856432e-06
6.7301144e-08
3.7872292e-08
8.8855708e-06
6.3894254e-08
3.6178157e-08
8.7901757e-06
6.0780109e-08
3.461493e-08
8.6990829e-06
5.7926171e-08
3.3166657e-08
8.6119591e-06
5.5303714e-08
3.1820122e-08
8.5285072e-06
5.2887444e-08
3.05644e-08
8.4484619e-06
5.0655084e-08
2.939028e-08
8.3715848e-06
4.8587036e-08
2.8290025e-08
8.2976614e-06
4.6666149e-08
2.7257226e-08
8.2264975e-06
4.4877458e-08
2.6286396e-08
8.1579202e-06
4.3208754e-08
2.536852e-08
8.0917731e-06
4.1649064e-08
2.449805e-08
8.0279108e-06
4.0187018e-08
2.3675384e-08
7.9662006e-06
3.8812682e-08
2.2897524e-08
7.9065219e-06
3.7518425e-08
2.2160226e-08
7.8487639e-06
3.6297862e-08
2.146015e-08
7.7928242e-06
3.5145134e-08
2.0794577e-08
7.7386084e-06
3.4054651e-08
2.0161181e-08
7.6860293e-06
3.3021354e-08
1.9557717e-08
7.6350062e-06
3.204081e-08
1.8982265e-08
7.5854641e-06
3.1109061e-08
1.8433034e-08
7.537333e-06
3.0222577e-08
1.7908493e-08
7.4905478e-06
2.9378224e-08
1.7407001e-08
7.4450476e-06
2.8573022e-08
1.6927187e-08
7.4007756e-06
2.7804223e-08
1.6467796e-08
7.3576783e-06
2.7069582e-08
1.6027653e-08
7.3157056e-06
2.6367024e-08
1.5605645e-08
7.2748103e-06
2.5694636e-08
1.5200688e-08
7.2349479e-06
2.5050571e-08
1.4811852e-08
7.1960766e-06
2.4433101e-08
1.4438186e-08
7.158157e-06
2.3840691e-08
1.4078944e-08
7.1211518e-06
2.3271917e-08
1.3733295e-08
7.0850258e-06
2.2725513e-08
1.3400518e-08
7.0497457e-06
2.2200222e-08
1.3079934e-08
7.0152798e-06
2.1694912e-08
1.2770884e-08
6.9815985e-06
2.1208587e-08
1.2472772e-08
6.9486733e-06
2.074023e-08
1.2184934e-08
6.9164775e-06
2.0288956e-08
1.1906822e-08
6.8849857e-06
1.9853932e-08
1.1637838e-08
6.8541739e-06
1.9434401e-08
1.1377463e-08
6.8240194e-06
1.9029441e-08
1.1125101e-08
6.7945006e-06
1.8638539e-08
1.0880265e-08
6.7655975e-06
1.8260762e-08
1.0642283e-08
6.7372912e-06
1.7895528e-08
1.0410733e-08
6.709564e-06
1.7542088e-08
1.0185105e-08
6.6823995e-06
1.7199612e-08
9.9648689e-09
6.6557824e-06
1.6867245e-08
9.7498317e-09
6.6296983e-06
1.6544144e-08
9.5399984e-09
6.6041331e-06
1.6229273e-08
9.3359936e-09
6.5790714e-06
1.592199e-08
9.1396982e-09
6.554494e-06
1.5622308e-08
8.9551065e-09
6.5303708e-06
1.5332556e-08
8.7906465e-09
6.5066467e-06
1.5060474e-08
8.6636111e-09
6.4832094e-06
1.482781e-08
8.6095081e-09
6.4598103e-06
1.4693079e-08
8.7060313e-09
6.4358387e-06
1.4826385e-08
9.1451628e-09
6.4096302e-06
1.5741767e-08
1.0466746e-08
6.3782854e-06
1.8026592e-08
1.3318227e-08
3.2300208e-08
2.7923556e-08
0.00010646494
4.1872385e-06
6.4599816e-06
0.0001002019
5.695418e-06
6.6231353e-06
9.3659588e-05
5.7790389e-06
6.2744098e-06
8.7011589e-05
5.6514782e-06
6.0369387e-06
8.0422927e-05
5.3669119e-06
5.7173941e-06
7.4094022e-05
4.9022832e-06
5.3063862e-06
6.8167026e-05
4.3278135e-06
4.8516272e-06
6.2722565e-05
3.717891e-06
4.387032e-06
5.7799049e-05
3.1243144e-06
3.9337145e-06
5.3403345e-05
2.5820689e-06
3.5063329e-06
4.9517402e-05
2.1121062e-06
3.1138299e-06
4.6105482e-05
1.7220197e-06
2.7597474e-06
4.3121558e-05
1.4089355e-06
2.4437429e-06
4.0515558e-05
1.1637552e-06
2.163346e-06
3.8237948e-05
9.7485853e-07
1.9152336e-06
3.6242683e-05
8.3055976e-07
1.6959573e-06
3.4488759e-05
7.2043697e-07
1.5022849e-06
3.2940716e-05
6.3586294e-07
1.3313172e-06
3.1568463e-05
5.7005004e-07
1.1804931e-06
3.0346733e-05
5.1784897e-07
1.0475522e-06
2.9254398e-05
4.7545956e-07
9.3049032e-07
2.8273782e-05
4.4013956e-07
8.2752024e-07
2.7390054e-05
4.0994895e-07
7.3704007e-07
2.6590699e-05
3.8353956e-07
6.5760858e-07
2.5865102e-05
3.5998889e-07
5.8793074e-07
2.5204197e-05
3.3867631e-07
5.2684265e-07
2.4600205e-05
3.1918359e-07
4.7330352e-07
2.4046429e-05
3.012019e-07
4.263902e-07
2.3537073e-05
2.8455204e-07
3.8526717e-07
2.3067119e-05
2.6911098e-07
3.491824e-07
2.2632208e-05
2.5478165e-07
3.1747786e-07
2.2228528e-05
2.4147384e-07
2.895953e-07
2.1852744e-05
2.2911075e-07
2.6504122e-07
2.1501947e-05
2.1762895e-07
2.4337258e-07
2.1173591e-05
2.0696953e-07
2.242057e-07
2.0865444e-05
1.9707568e-07
2.0720866e-07
2.0575549e-05
1.8789254e-07
1.9209399e-07
2.0302183e-05
1.7936723e-07
1.7861346e-07
2.0043829e-05
1.714491e-07
1.6655323e-07
1.979915e-05
1.6408982e-07
1.5572941e-07
1.956696e-05
1.572438e-07
1.4598404e-07
1.934621e-05
1.5086895e-07
1.371822e-07
1.9135969e-05
1.4492652e-07
1.2920879e-07
1.8935407e-05
1.3937905e-07
1.2196306e-07
1.8743783e-05
1.3419232e-07
1.1535763e-07
1.8560435e-05
1.2933509e-07
1.0931729e-07
1.8384766e-05
1.2477909e-07
1.0377716e-07
1.8216241e-05
1.2049856e-07
9.8681292e-08
1.8054377e-05
1.1647013e-07
9.3981297e-08
1.7898734e-05
1.1267291e-07
8.9635428e-08
1.7748917e-05
1.0908821e-07
8.560699e-08
1.7604563e-05
1.0570005e-07
8.1862427e-08
1.7465345e-05
1.0249337e-07
7.8373291e-08
1.7330962e-05
9.9452989e-08
7.5116975e-08
1.7201138e-05
9.6564404e-08
7.2072693e-08
1.7075619e-05
9.381663e-08
6.9221142e-08
1.695417e-05
9.1201097e-08
6.6545105e-08
1.6836577e-05
8.870913e-08
6.4029541e-08
1.6722638e-05
8.633195e-08
6.1661036e-08
1.661217e-05
8.4061745e-08
5.9427721e-08
1.6505001e-05
8.1891519e-08
5.7318836e-08
1.640097e-05
7.9814907e-08
5.5324819e-08
1.6299929e-05
7.7826153e-08
5.3437112e-08
1.620174e-05
7.5919864e-08
5.1647902e-08
1.6106272e-05
7.4091015e-08
4.9950112e-08
1.6013404e-05
7.233496e-08
4.8337374e-08
1.5923022e-05
7.064771e-08
4.6803874e-08
1.5835019e-05
6.9025745e-08
4.5344293e-08
1.5749294e-05
6.7465542e-08
4.3953709e-08
1.5665753e-05
6.5963774e-08
4.2627713e-08
1.5584307e-05
6.4517383e-08
4.1362189e-08
1.5504871e-05
6.3123412e-08
4.0153359e-08
1.5427365e-05
6.1779299e-08
3.8997799e-08
1.5351716e-05
6.0482566e-08
3.7892303e-08
1.5277852e-05
5.9230826e-08
3.6833847e-08
1.5205705e-05
5.8021974e-08
3.5819727e-08
1.5135212e-05
5.6853998e-08
3.4847366e-08
1.5066313e-05
5.5724975e-08
3.3914337e-08
1.499895e-05
5.4633109e-08
3.3018437e-08
1.493307e-05
5.3576706e-08
3.2157453e-08
1.4868621e-05
5.2554184e-08
3.1329431e-08
1.4805554e-05
5.156398e-08
3.0532481e-08
1.4743823e-05
5.0604508e-08
2.9764672e-08
1.4683386e-05
4.96743e-08
2.9024359e-08
1.4624199e-05
4.8771799e-08
2.8309857e-08
1.4566226e-05
4.7895451e-08
2.7619594e-08
1.4509431e-05
4.7043487e-08
2.6952004e-08
1.4453778e-05
4.621413e-08
2.6305793e-08
1.4399237e-05
4.5405407e-08
2.5679889e-08
1.4345777e-05
4.4615693e-08
2.5073751e-08
1.4293367e-05
4.3844249e-08
2.4487687e-08
1.4241972e-05
4.3092868e-08
2.3923756e-08
1.4191548e-05
4.2369902e-08
2.338714e-08
1.4142019e-05
4.1699282e-08
2.2889646e-08
1.4093249e-05
4.1141612e-08
2.2456639e-08
1.4044951e-05
4.0844664e-08
2.2146556e-08
1.3996485e-05
4.1169194e-08
2.2123043e-08
1.3946229e-05
4.3012307e-08
2.298539e-08
1.389015e-05
4.854029e-08
2.5565801e-08
6.3281548e-08
5.0000861e-08
0.00010603565
2.7876425e-06
6.4750379e-06
0.00010074799
4.4145413e-06
6.5685292e-06
9.5493515e-05
4.8594028e-06
6.1741158e-06
9.0256432e-05
4.930369e-06
5.9581921e-06
8.5101366e-05
4.8311767e-06
5.6908012e-06
8.0102875e-05
4.5561761e-06
5.3445981e-06
7.5322251e-05
4.1469521e-06
4.9614853e-06
7.0803266e-05
3.6678925e-06
4.5689837e-06
6.6576264e-05
3.1701903e-06
4.1811255e-06
6.2660725e-05
2.690011e-06
3.8075976e-06
5.9065443e-05
2.2519319e-06
3.4554566e-06
5.5788936e-05
1.8697304e-06
3.1287958e-06
5.2820978e-05
1.5477473e-06
2.8291458e-06
5.014479e-05
1.2836302e-06
2.5563139e-06
4.7739304e-05
1.07123e-06
2.3091141e-06
4.5581183e-05
9.0281506e-07
2.0858661e-06
4.3646423e-05
7.7048779e-07
1.884709e-06
4.1911533e-05
6.6697372e-07
1.7037793e-06
4.0354306e-05
5.8598195e-07
1.541295e-06
3.8954268e-05
5.223022e-07
1.3955849e-06
3.769288e-05
4.7175605e-07
1.265091e-06
3.6553576e-05
4.3107986e-07
1.1483634e-06
3.552169e-05
3.9778207e-07
1.0440533e-06
3.4584322e-05
3.6999881e-07
9.5090828e-07
3.3730181e-05
3.4635981e-07
8.6777019e-07
3.2949411e-05
3.2587759e-07
7.9356873e-07
3.2233419e-05
3.0784046e-07
7.2733485e-07
3.1574711e-05
2.9172981e-07
6.6818103e-07
3.0966769e-05
2.7719268e-07
6.1530129e-07
3.0403928e-05
2.63981e-07
5.679702e-07
2.9881258e-05
2.5190849e-07
5.2554318e-07
2.9394455e-05
2.4082713e-07
4.8744999e-07
2.8939761e-05
2.3062159e-07
4.5318326e-07
2.8513895e-05
2.2120153e-07
4.2229384e-07
2.8113985e-05
2.1249196e-07
3.9438674e-07
2.7737518e-05
2.0442797e-07
3.691149e-07
2.7382285e-05
1.9695195e-07
3.4617384e-07
2.7046344e-05
1.9001174e-07
3.252968e-07
2.6727982e-05
1.8355992e-07
3.0625043e-07
2.6425689e-05
1.7755273e-07
2.8883087e-07
2.6138123e-05
1.7195005e-07
2.7285985e-07
2.5864094e-05
1.6671516e-07
2.5818187e-07
2.5602546e-05
1.6181454e-07
2.4466092e-07
2.535253e-05
1.5721707e-07
2.3217763e-07
2.51132e-05
1.5289444e-07
2.2062728e-07
2.4883797e-05
1.4882101e-07
2.0991774e-07
2.4663634e-05
1.4497368e-07
1.9996813e-07
2.4452094e-05
1.4133182e-07
1.9070707e-07
2.4248615e-05
1.3787695e-07
1.8207154e-07
2.405269e-05
1.3459266e-07
1.7400573e-07
2.3863854e-05
1.3146461e-07
1.6645989e-07
2.3681684e-05
1.2848058e-07
1.5938924e-07
2.3505794e-05
1.256292e-07
1.5275409e-07
2.3335829e-05
1.2289867e-07
1.4651967e-07
2.3171462e-05
1.2027633e-07
1.4065459e-07
2.3012394e-05
1.1775476e-07
1.3513022e-07
2.2858345e-05
1.1532969e-07
1.2992044e-07
2.2709057e-05
1.1299537e-07
1.2500173e-07
2.2564291e-05
1.1074517e-07
1.2035289e-07
2.2423824e-05
1.0857347e-07
1.1595459e-07
2.2287451e-05
1.0647545e-07
1.1178923e-07
2.2154978e-05
1.04447e-07
1.078408e-07
2.2026226e-05
1.0248423e-07
1.0409458e-07
2.1901025e-05
1.0058356e-07
1.0053718e-07
2.1779218e-05
9.8741544e-08
9.7156178e-08
2.1660658e-05
9.6954897e-08
9.3940279e-08
2.1545205e-05
9.5221262e-08
9.087904e-08
2.1432729e-05
9.3538829e-08
8.7962802e-08
2.1323107e-05
9.1905309e-08
8.5182604e-08
2.1216222e-05
9.0318522e-08
8.2530184e-08
2.1111965e-05
8.8776385e-08
7.9997852e-08
2.1010233e-05
8.7277117e-08
7.757864e-08
2.0910927e-05
8.581897e-08
7.5265888e-08
2.0813956e-05
8.4400329e-08
7.3053434e-08
2.0719232e-05
8.3019708e-08
7.0935655e-08
2.0626671e-05
8.1675649e-08
6.8907212e-08
2.0536195e-05
8.0366816e-08
6.696311e-08
2.0447729e-05
7.9091951e-08
6.509877e-08
2.0361203e-05
7.7849797e-08
6.330977e-08
2.0276548e-05
7.6639213e-08
6.1592044e-08
2.0193702e-05
7.5459e-08
5.9941747e-08
2.0112602e-05
7.4307956e-08
5.8355234e-08
2.0033193e-05
7.3184938e-08
5.6829054e-08
1.9955419e-05
7.2088607e-08
5.5359969e-08
1.9879228e-05
7.1017672e-08
5.3944863e-08
1.9804572e-05
6.997045e-08
5.2580732e-08
1.9731406e-05
6.8945271e-08
5.1264816e-08
1.9659685e-05
6.7940117e-08
4.9994399e-08
1.9589371e-05
6.6953026e-08
4.876704e-08
1.9520423e-05
6.5982366e-08
4.7580544e-08
1.9452807e-05
6.5028001e-08
4.6433095e-08
1.9386482e-05
6.4094108e-08
4.5323756e-08
1.9321404e-05
6.319467e-08
4.4253086e-08
1.9257511e-05
6.236631e-08
4.3225233e-08
1.9194705e-05
6.1695156e-08
4.2253137e-08
1.9132798e-05
6.1374045e-08
4.1377425e-08
1.9071394e-05
6.1822407e-08
4.0750691e-08
1.9009424e-05
6.3924757e-08
4.1057623e-08
1.8944661e-05
6.9304657e-08
4.3998833e-08
7.9170966e-08
7.4661536e-08
0.0001054937
1.9169871e-06
6.4880407e-06
0.00010005365
3.2729596e-06
6.5816334e-06
9.4926077e-05
3.8288995e-06
6.1580776e-06
8.9946373e-05
3.9838108e-06
5.9262629e-06
8.5163276e-05
3.9595077e-06
5.6547657e-06
8.0619137e-05
3.7899368e-06
5.3103784e-06
7.6329462e-05
3.5015547e-06
4.9350725e-06
7.230016e-05
3.1412013e-06
4.5559928e-06
6.8534206e-05
2.7514802e-06
4.1846641e-06
6.5032983e-05
2.3633493e-06
3.8278852e-06
6.1795789e-05
1.9984143e-06
3.490711e-06
5.8818843e-05
1.670376e-06
3.176301e-06
5.6094717e-05
1.3858295e-06
2.8860429e-06
5.3612488e-05
1.1457945e-06
2.6200649e-06
5.1358373e-05
9.4764119e-07
2.3777043e-06
4.9316593e-05
7.8676782e-07
2.1578271e-06
4.7470246e-05
6.5779546e-07
1.9590391e-06
4.5802069e-05
5.5532541e-07
1.7798252e-06
4.4295042e-05
4.7437116e-07
1.6186378e-06
4.293283e-05
4.1056666e-07
1.473948e-06
4.1700078e-05
3.6023234e-07
1.3442759e-06
4.0582591e-05
3.2035742e-07
1.2282094e-06
3.956742e-05
2.8853733e-07
1.1244154e-06
3.8642881e-05
2.6289063e-07
1.0316467e-06
3.7798527e-05
2.4196985e-07
9.4874403e-07
3.7025076e-05
2.2467704e-07
8.7465171e-07
3.6314324e-05
2.1018901e-07
8.0840413e-07
3.5659057e-05
1.9788605e-07
7.4911044e-07
3.5052961e-05
1.873158e-07
6.9597283e-07
3.4490519e-05
1.7814868e-07
6.4827382e-07
3.3966922e-05
1.7013169e-07
6.053744e-07
3.3477973e-05
1.6306729e-07
5.6670866e-07
3.3020016e-05
1.5680297e-07
5.317754e-07
3.2589865e-05
1.5122056e-07
5.0013241e-07
3.218474e-05
1.4622564e-07
4.7139136e-07
3.1802215e-05
1.4174073e-07
4.4521234e-07
3.1440168e-05
1.3770093e-07
4.212981e-07
3.1096739e-05
1.3405092e-07
3.9938924e-07
3.0770297e-05
1.3074295e-07
3.7925954e-07
3.0459402e-05
1.2773518e-07
3.6071196e-07
3.0162787e-05
1.2499091e-07
3.4357478e-07
2.9879325e-05
1.2247784e-07
3.2769848e-07
2.960802e-05
1.2016735e-07
3.1295274e-07
2.934798e-05
1.1803383e-07
2.9922352e-07
2.9098408e-05
1.1605466e-07
2.8641138e-07
2.885859e-05
1.1420985e-07
2.7442904e-07
2.8627882e-05
1.1248192e-07
2.6319996e-07
2.8405701e-05
1.1085558e-07
2.5265685e-07
2.819152e-05
1.093176e-07
2.4274021e-07
2.7984859e-05
1.0785648e-07
2.3339754e-07
2.7785279e-05
1.0646278e-07
2.245821e-07
2.7592379e-05
1.051287e-07
2.1625211e-07
2.740579e-05
1.0384735e-07
2.0837034e-07
2.7225174e-05
1.0261117e-07
2.009036e-07
2.705022e-05
1.0140747e-07
1.9382257e-07
2.6880641e-05
1.0023382e-07
1.8710045e-07
2.6716166e-05
9.9092329e-08
1.8071225e-07
2.6556546e-05
9.798e-08
1.7463556e-07
2.6401548e-05
9.6892517e-08
1.6885014e-07
2.6250957e-05
9.5827072e-08
1.6333742e-07
2.610457e-05
9.4781683e-08
1.5808045e-07
2.5962199e-05
9.3754741e-08
1.5306362e-07
2.5823666e-05
9.2744893e-08
1.4827261e-07
2.5688804e-05
9.1751021e-08
1.4369414e-07
2.5557458e-05
9.0771762e-08
1.3931596e-07
2.5429481e-05
8.9805185e-08
1.3512694e-07
2.5304734e-05
8.8851458e-08
1.3111646e-07
2.5183087e-05
8.7911219e-08
1.2727468e-07
2.5064416e-05
8.6983924e-08
1.2359246e-07
2.4948604e-05
8.6068889e-08
1.2006122e-07
2.4835542e-05
8.516579e-08
1.1667302e-07
2.4725124e-05
8.4274285e-08
1.1342046e-07
2.4617252e-05
8.3394267e-08
1.1029657e-07
2.4511832e-05
8.2525491e-08
1.072948e-07
2.4408775e-05
8.1667775e-08
1.0440902e-07
2.4307997e-05
8.0820988e-08
1.0163341e-07
2.4209416e-05
7.9985038e-08
9.8962659e-08
2.4112956e-05
7.915975e-08
9.6391552e-08
2.4018546e-05
7.8345038e-08
9.3915297e-08
2.3926115e-05
7.7540659e-08
9.1529317e-08
2.3835598e-05
7.6746544e-08
8.9229282e-08
2.3746933e-05
7.5962325e-08
8.7011046e-08
2.366006e-05
7.5187664e-08
8.4870707e-08
2.3574922e-05
7.4421984e-08
8.2804539e-08
2.3491466e-05
7.3664618e-08
8.0808897e-08
2.3409641e-05
7.291461e-08
7.8880379e-08
2.33294e-05
7.2170704e-08
7.7015517e-08
2.3250698e-05
7.1431319e-08
7.5211044e-08
2.3173493e-05
7.0694892e-08
7.3463619e-08
2.3097745e-05
6.9960231e-08
7.1770073e-08
2.3023418e-05
6.9227973e-08
7.0126989e-08
2.2950477e-05
6.850351e-08
6.8531179e-08
2.2878889e-05
6.7802864e-08
6.6979702e-08
2.2808619e-05
6.7165049e-08
6.5471586e-08
2.2739625e-05
6.6675283e-08
6.401335e-08
2.267185e-05
6.6507099e-08
6.2642313e-08
2.2605149e-05
6.6990741e-08
6.1532371e-08
2.2538888e-05
6.8686023e-08
6.1499901e-08
2.2471121e-05
7.2226982e-08
6.484512e-08
7.6722835e-08
9.846131e-08
0.0001051979
1.3340884e-06
6.4961221e-06
9.9496561e-05
2.3731022e-06
6.6011947e-06
9.4262459e-05
2.9019223e-06
6.1610799e-06
8.9251186e-05
3.0856641e-06
5.9094196e-06
8.4493497e-05
3.0947347e-06
5.6224614e-06
8.0033635e-05
2.9846657e-06
5.2651341e-06
7.5876907e-05
2.7790155e-06
4.8792667e-06
7.2014635e-05
2.5106844e-06
4.4927895e-06
6.8436293e-05
2.2128728e-06
4.1169489e-06
6.5131387e-05
1.9107259e-06
3.7575292e-06
6.208941e-05
1.6217321e-06
3.4186596e-06
5.9299432e-05
1.3573877e-06
3.1029661e-06
5.6749589e-05
1.1240344e-06
2.8116386e-06
5.4426788e-05
9.2377945e-07
2.5448158e-06
5.2316754e-05
7.5572797e-07
2.3019465e-06
5.0404313e-05
6.1717852e-07
2.0820302e-06
4.8673788e-05
5.0454349e-07
1.8837772e-06
4.7109414e-05
4.1397182e-07
1.7057274e-06
4.5695713e-05
3.4173648e-07
1.5463363e-06
4.4417792e-05
2.8445146e-07
1.4040359e-06
4.3261575e-05
2.3917111e-07
1.277278e-06
4.2213952e-05
2.0341499e-07
1.1645652e-06
4.1262871e-05
1.7514741e-07
1.0644719e-06
4.039737e-05
1.5273235e-07
9.7565897e-07
3.9607583e-05
1.3487526e-07
8.9688144e-07
3.8884688e-05
1.2055567e-07
8.2701638e-07
3.8220848e-05
1.090109e-07
7.6501854e-07
3.7609155e-05
9.9633844e-08
7.0994488e-07
3.7043542e-05
9.1977448e-08
6.609509e-07
3.6518702e-05
8.5705806e-08
6.1728289e-07
3.6030009e-05
8.0552396e-08
5.7827309e-07
3.5573433e-05
7.6308279e-08
5.4333415e-07
3.5145475e-05
7.2811274e-08
5.1195028e-07
3.4743091e-05
6.9934141e-08
4.8367022e-07
3.4363641e-05
6.7575425e-08
4.5810062e-07
3.4004828e-05
6.5652898e-08
4.3489997e-07
3.3664659e-05
6.4098593e-08
4.1377209e-07
3.3341393e-05
6.2855929e-08
3.9446096e-07
3.3033513e-05
6.1877037e-08
3.7674526e-07
3.2739693e-05
6.1121121e-08
3.6043427e-07
3.2458768e-05
6.0553111e-08
3.453633e-07
3.2189712e-05
6.0142695e-08
3.3139053e-07
3.1931622e-05
5.986367e-08
3.1839376e-07
3.1683696e-05
5.969314e-08
3.0626733e-07
3.1445219e-05
5.9611227e-08
2.9492011e-07
3.1215555e-05
5.9600647e-08
2.8427316e-07
3.0994132e-05
5.9646555e-08
2.7425804e-07
3.0780436e-05
5.9736169e-08
2.6481543e-07
3.0574002e-05
5.9858674e-08
2.5589333e-07
3.0374407e-05
6.0004966e-08
2.4744661e-07
3.0181267e-05
6.0167677e-08
2.3943549e-07
2.9994229e-05
6.034129e-08
2.3182486e-07
2.9812971e-05
6.0521806e-08
2.2458373e-07
2.9637193e-05
6.0704453e-08
2.1768456e-07
2.9466629e-05
6.0867283e-08
2.1110457e-07
2.9301024e-05
6.1016994e-08
2.048218e-07
2.914014e-05
6.1160891e-08
1.988157e-07
2.8983756e-05
6.129496e-08
1.9306837e-07
2.8831669e-05
6.14155e-08
1.875639e-07
2.8683688e-05
6.1520979e-08
1.8228765e-07
2.8539633e-05
6.1610575e-08
1.7722634e-07
2.8399336e-05
6.1683797e-08
1.7236787e-07
2.8262639e-05
6.1740496e-08
1.6770091e-07
2.8129394e-05
6.1780666e-08
1.6321519e-07
2.7999461e-05
6.1803869e-08
1.5890123e-07
2.7872709e-05
6.1807367e-08
1.547504e-07
2.7749012e-05
6.179358e-08
1.5075443e-07
2.7628253e-05
6.1764824e-08
1.469056e-07
2.7510319e-05
6.1721009e-08
1.4319664e-07
2.7395105e-05
6.1662121e-08
1.3962087e-07
2.728251e-05
6.1588611e-08
1.3617203e-07
2.7172439e-05
6.1501064e-08
1.3284422e-07
2.7064802e-05
6.1399981e-08
1.2963193e-07
2.6959511e-05
6.128594e-08
1.2652993e-07
2.6856486e-05
6.1159529e-08
1.2353327e-07
2.6755649e-05
6.1021325e-08
1.2063733e-07
2.6656924e-05
6.0871882e-08
1.1783766e-07
2.6560242e-05
6.0711728e-08
1.1513014e-07
2.6465535e-05
6.0541363e-08
1.1251077e-07
2.6372738e-05
6.0361303e-08
1.099758e-07
2.6281791e-05
6.0171949e-08
1.075216e-07
2.6192636e-05
5.9973564e-08
1.0514468e-07
2.6105215e-05
5.9766344e-08
1.0284182e-07
2.6019477e-05
5.9550239e-08
1.0060971e-07
2.5935371e-05
5.9325182e-08
9.8445262e-08
2.585285e-05
5.9090502e-08
9.6345371e-08
2.5771868e-05
5.8845511e-08
9.4306937e-08
2.5692384e-05
5.8589004e-08
9.2326758e-08
2.5614357e-05
5.8319785e-08
9.0401435e-08
2.5537753e-05
5.8037077e-08
8.8527342e-08
2.5462539e-05
5.7741607e-08
8.6700204e-08
2.5388689e-05
5.7438416e-08
8.4915157e-08
2.5316184e-05
5.7141441e-08
8.3166626e-08
2.5245017e-05
5.6882587e-08
8.1449677e-08
2.51752e-05
5.6726046e-08
7.9765798e-08
2.510677e-05
5.6787922e-08
7.8149174e-08
2.5039729e-05
5.7251601e-08
7.6780998e-08
2.4973573e-05
5.8330956e-08
7.6510242e-08
2.4906079e-05
5.9989515e-08
7.9732189e-08
6.0715008e-08
1.1287822e-07
0.00010503672
9.0789372e-07
6.5005614e-06
9.9140653e-05
1.6524914e-06
6.6166801e-06
9.3788329e-05
2.0825241e-06
6.1717217e-06
8.8708526e-05
2.2549373e-06
5.91053e-06
8.3909682e-05
2.278404e-06
5.6151748e-06
7.9437109e-05
2.2074821e-06
5.2497564e-06
7.5296201e-05
2.0645348e-06
4.8553893e-06
7.1474034e-05
1.8722543e-06
4.4605969e-06
6.7955013e-05
1.6547667e-06
4.0771269e-06
6.4723621e-05
1.4313505e-06
3.7107669e-06
6.1764423e-05
1.2154298e-06
3.3655007e-06
5.9062056e-05
1.0158641e-06
3.0438911e-06
5.6601108e-05
8.3782747e-07
2.7471548e-06
5.4365944e-05
6.8344651e-07
2.475497e-06
5.2340648e-05
5.5258528e-07
2.2284383e-06
5.0509125e-05
4.4366546e-07
2.0050361e-06
4.8855299e-05
3.5433456e-07
1.8040352e-06
4.7363353e-05
2.819359e-07
1.6239821e-06
4.6017963e-05
2.2381345e-07
1.4633127e-06
4.4804502e-05
1.774938e-07
1.3204181e-06
4.3709199e-05
1.4078087e-07
1.1936935e-06
4.2719248e-05
1.1179156e-07
1.081575e-06
4.1822875e-05
8.8954531e-08
9.8256583e-07
4.1009364e-05
7.0987991e-08
8.9525472e-07
4.0269054e-05
5.6861828e-08
8.183238e-07
3.9593306e-05
4.5719118e-08
7.5058475e-07
3.8974405e-05
3.6977853e-08
6.9093436e-07
3.8405585e-05
3.0067384e-08
6.3838635e-07
3.7880869e-05
2.4650875e-08
5.9204244e-07
3.7395029e-05
2.0439994e-08
5.5110608e-07
3.6943514e-05
1.7190262e-08
5.1487718e-07
3.6522366e-05
1.4716753e-08
4.8273959e-07
3.6128148e-05
1.2874802e-08
4.5415389e-07
3.5757883e-05
1.1549919e-08
4.2864942e-07
3.5408991e-05
1.0650792e-08
4.0581704e-07
3.5079238e-05
1.0103632e-08
3.8530227e-07
3.4766689e-05
9.8482731e-09
3.6679879e-07
3.4469668e-05
9.8351185e-09
3.5004235e-07
3.4186716e-05
1.0022912e-08
3.3480552e-07
3.3916567e-05
1.0377047e-08
3.2089288e-07
3.3658116e-05
1.0868057e-08
3.0813662e-07
3.3410395e-05
1.1470996e-08
2.9639286e-07
3.3172556e-05
1.2164221e-08
2.8553826e-07
3.2943853e-05
1.2929294e-08
2.7546719e-07
3.2723625e-05
1.3750144e-08
2.6608895e-07
3.2511286e-05
1.461307e-08
2.5732573e-07
3.2306316e-05
1.5506245e-08
2.4911065e-07
3.2108246e-05
1.6419622e-08
2.4138622e-07
3.1916658e-05
1.7344641e-08
2.3410271e-07
3.1731171e-05
1.8274328e-08
2.2721711e-07
3.1551444e-05
1.9203199e-08
2.2069218e-07
3.1377162e-05
2.0127734e-08
2.1449508e-07
3.1208038e-05
2.1048661e-08
2.0859681e-07
3.10438e-05
2.197277e-08
2.0297054e-07
3.0884232e-05
2.2827848e-08
1.9760737e-07
3.0729103e-05
2.3662971e-08
1.9248228e-07
3.05782e-05
2.4490009e-08
1.8757381e-07
3.0431331e-05
2.5296299e-08
1.8286762e-07
3.0288318e-05
2.607799e-08
1.7835077e-07
3.0148994e-05
2.6834297e-08
1.7401108e-07
3.0013202e-05
2.7564703e-08
1.6983754e-07
2.9880797e-05
2.8268981e-08
1.6582026e-07
2.975164e-05
2.8947409e-08
1.6195015e-07
2.9625601e-05
2.9600775e-08
1.5821897e-07
2.9502557e-05
3.0228576e-08
1.546192e-07
2.9382396e-05
3.0823581e-08
1.5114467e-07
2.9265007e-05
3.1393104e-08
1.4778875e-07
2.9150287e-05
3.1939582e-08
1.4454537e-07
2.9038137e-05
3.246188e-08
1.4140899e-07
2.8928465e-05
3.2960045e-08
1.3837462e-07
2.8821181e-05
3.3434703e-08
1.3543751e-07
2.8716203e-05
3.3886346e-08
1.3259329e-07
2.8613449e-05
3.4315546e-08
1.2983785e-07
2.8512845e-05
3.4722871e-08
1.2716738e-07
2.8414317e-05
3.5109e-08
1.2457817e-07
2.8317797e-05
3.5474462e-08
1.220668e-07
2.8223219e-05
3.5819901e-08
1.1963005e-07
2.813052e-05
3.6145915e-08
1.1726488e-07
2.803964e-05
3.6453065e-08
1.1496838e-07
2.7950522e-05
3.6741863e-08
1.1273773e-07
2.7863111e-05
3.7012816e-08
1.1057028e-07
2.7777355e-05
3.7266288e-08
1.0846342e-07
2.7693204e-05
3.7502465e-08
1.0641474e-07
2.761061e-05
3.7721617e-08
1.0442174e-07
2.752953e-05
3.7923554e-08
1.0248201e-07
2.7449919e-05
3.8108008e-08
1.0059309e-07
2.7371738e-05
3.8274292e-08
9.8752286e-08
2.7294949e-05
3.8421555e-08
9.6956895e-08
2.7219516e-05
3.8548744e-08
9.5203647e-08
2.714541e-05
3.8655111e-08
9.3488611e-08
2.7072603e-05
3.8741156e-08
9.1806937e-08
2.7001079e-05
3.8810283e-08
9.015231e-08
2.6930832e-05
3.8872153e-08
8.8516558e-08
2.6861876e-05
3.8947389e-08
8.6890536e-08
2.679426e-05
3.9073536e-08
8.5269176e-08
2.6728065e-05
3.930699e-08
8.3675965e-08
2.6663337e-05
3.9708368e-08
8.2271177e-08
2.659956e-05
4.0272002e-08
8.1836203e-08
2.6534295e-05
4.0698034e-08
8.4555718e-08
3.962083e-08
1.1507129e-07
0.00010494757
5.681108e-07
6.5033076e-06
9.8925416e-05
1.0462983e-06
6.6283517e-06
9.3480449e-05
1.3439845e-06
6.1835065e-06
8.8341777e-05
1.4751324e-06
5.9184763e-06
8.3502084e-05
1.4993911e-06
5.6187065e-06
7.9004057e-05
1.4572411e-06
5.2482679e-06
7.4853978e-05
1.3667382e-06
4.8478756e-06
7.1037378e-05
1.2423973e-06
4.4464569e-06
6.7536063e-05
1.0997693e-06
4.0563127e-06
6.4331998e-05
9.5192359e-07
3.683491e-06
6.1407318e-05
8.0805757e-07
3.3320524e-06
5.8744339e-05
6.7422202e-07
3.0046209e-06
5.6325632e-05
5.5404397e-07
2.7024907e-06
5.4133973e-05
4.4916748e-07
2.4259383e-06
5.2152298e-05
3.59724e-07
2.174536e-06
5.0363747e-05
2.8484514e-07
1.9473718e-06
4.875178e-05
2.2310004e-07
1.7432015e-06
4.7300339e-05
1.7281165e-07
1.5605646e-06
4.5994012e-05
1.3226572e-07
1.3978748e-06
4.4818177e-05
9.984001e-08
1.2534891e-06
4.3759121e-05
7.4075597e-08
1.1257614e-06
4.2804123e-05
5.3707622e-08
1.0130814e-06
4.1941503e-05
3.7671205e-08
9.1390373e-07
4.1160627e-05
2.5096453e-08
8.2676734e-07
4.0451891e-05
1.5294179e-08
7.5030391e-07
3.980679e-05
7.5281602e-09
6.8329174e-07
3.9217543e-05
1.672787e-09
6.24552e-07
3.8677513e-05
-3.033079e-09
5.7313081e-07
3.8180739e-05
-6.6486494e-09
5.2807355e-07
3.7722004e-05
-9.3594687e-09
4.8853451e-07
3.7296777e-05
-1.1371779e-08
4.5378928e-07
3.6901112e-05
-1.281821e-08
4.2319914e-07
3.6531588e-05
-1.3805291e-08
3.962048e-07
3.6185236e-05
-1.4417467e-08
3.7231874e-07
3.5859491e-05
-1.4721868e-08
3.5111774e-07
3.5552132e-05
-1.4772634e-08
3.322358e-07
3.5261237e-05
-1.46139e-08
3.153573e-07
3.4985143e-05
-1.4282132e-08
3.0021091e-07
3.472241e-05
-1.380767e-08
2.8656375e-07
3.4471787e-05
-1.3215878e-08
2.742163e-07
3.4232185e-05
-1.2528201e-08
2.6299769e-07
3.4002657e-05
-1.1762816e-08
2.5276172e-07
3.3782373e-05
-1.0935225e-08
2.4338338e-07
3.3570606e-05
-1.0058763e-08
2.3475557e-07
3.3366714e-05
-9.1447332e-09
2.2678675e-07
3.3170132e-05
-8.2028115e-09
2.1939836e-07
3.2980356e-05
-7.2412451e-09
2.1252301e-07
3.279694e-05
-6.2668811e-09
2.0610283e-07
3.2619482e-05
-5.2855258e-09
2.0008784e-07
3.2447623e-05
-4.3017946e-09
1.9443478e-07
3.228104e-05
-3.3190233e-09
1.8910588e-07
3.2119438e-05
-2.3383148e-09
1.8406734e-07
3.1962554e-05
-1.3530384e-09
1.7928648e-07
3.1810075e-05
-2.763228e-10
1.7472765e-07
3.1661878e-05
5.8578566e-10
1.7043906e-07
3.1517732e-05
1.4356074e-09
1.6637294e-07
3.1377429e-05
2.3038011e-09
1.6248957e-07
3.1240792e-05
3.1586453e-09
1.5877487e-07
3.1107656e-05
3.9969873e-09
1.5521718e-07
3.0977867e-05
4.8171752e-09
1.5180546e-07
3.0851284e-05
5.6180027e-09
1.4852967e-07
3.0727774e-05
6.3990419e-09
1.453808e-07
3.060721e-05
7.1609524e-09
1.4235056e-07
3.0489473e-05
7.9059304e-09
1.3943122e-07
3.037445e-05
8.635762e-09
1.3661579e-07
3.0262049e-05
9.3206762e-09
1.3390399e-07
3.0152163e-05
9.9938133e-09
1.3128565e-07
3.0044697e-05
1.0650384e-08
1.2875512e-07
2.9939564e-05
1.1286713e-08
1.2630826e-07
2.983668e-05
1.1903188e-08
1.2394088e-07
2.9735965e-05
1.2500098e-08
1.2164882e-07
2.9637345e-05
1.3077855e-08
1.1942844e-07
2.9540748e-05
1.3636705e-08
1.1727619e-07
2.9446105e-05
1.417702e-08
1.1518881e-07
2.9353352e-05
1.4699191e-08
1.1316336e-07
2.9262425e-05
1.5203559e-08
1.11197e-07
2.9173268e-05
1.5690509e-08
1.0928709e-07
2.9085822e-05
1.6160376e-08
1.0743106e-07
2.9000035e-05
1.6613566e-08
1.0562666e-07
2.8915855e-05
1.7050388e-08
1.0387154e-07
2.8833233e-05
1.7471123e-08
1.0216362e-07
2.8752123e-05
1.7875974e-08
1.0050078e-07
2.8672479e-05
1.8265093e-08
9.8881074e-08
2.8594259e-05
1.8638567e-08
9.7302494e-08
2.8517424e-05
1.8996223e-08
9.5762967e-08
2.8441934e-05
1.9337833e-08
9.4260388e-08
2.8367753e-05
1.9662803e-08
9.2792357e-08
2.8294848e-05
1.9970492e-08
9.1356282e-08
2.8223187e-05
2.0260001e-08
8.9948857e-08
2.8152746e-05
2.0530696e-08
8.8565915e-08
2.8083503e-05
2.0782613e-08
8.7201782e-08
2.8015447e-05
2.1017516e-08
8.5848673e-08
2.7948582e-05
2.124074e-08
8.4495845e-08
2.7882937e-05
2.1462743e-08
8.3129529e-08
2.7818574e-05
2.1699969e-08
8.1736519e-08
2.7755588e-05
2.1969254e-08
8.0324328e-08
2.7694014e-05
2.2266165e-08
7.9016066e-08
2.7633299e-05
2.2506285e-08
7.8480648e-08
2.7571004e-05
2.2393412e-08
8.0599453e-08
2.0993084e-08
1.0779945e-07
0.00010489986
2.7443378e-07
6.5049155e-06
9.8802772e-05
5.0716636e-07
6.6362236e-06
9.329591e-05
6.5854977e-07
6.1922972e-06
8.8116302e-05
7.2902548e-07
5.9257148e-06
8.3248198e-05
7.4378815e-07