/*--------------------------------*- C++ -*----------------------------------*\
  =========                 |
  \\      /  F ield         | OpenFOAM: The Open Source CFD Toolbox
   \\    /   O peration     | Website:  https://openfoam.org
    \\  /    A nd           | Version:  7
     \\/     M anipulation  |
\*---------------------------------------------------------------------------*/
FoamFile
{
    version     2.0;
    format      ascii;
    class       volVectorField;
    location    "1450/water";
    object      U;
}
// * * * * * * * * * * * * * * * * * * * * * * * * * * * * * * * * * * * * * //

dimensions      [0 1 -1 0 0 0 0];

internalField   nonuniform List<vector> 
54000
(
(0.0090020934 0.00020305973 0.00020444027)
(0.0083186447 0.00023622738 0.00023904411)
(0.0073695241 0.00021363852 0.00021763527)
(0.0063566114 0.00018488016 0.00018965819)
(0.0054486673 0.00015530836 0.00016048633)
(0.0046741594 0.00012529952 0.00013052937)
(0.0040193038 9.7052611e-05 0.00010203017)
(0.0034740067 7.2578999e-05 7.7073287e-05)
(0.0030302461 5.2876127e-05 5.6738329e-05)
(0.0026757323 3.8068151e-05 4.1216512e-05)
(0.0023947254 2.7637704e-05 3.0037141e-05)
(0.0021713898 2.0689034e-05 2.2336509e-05)
(0.0019919695 1.6236162e-05 1.7152703e-05)
(0.0018455015 1.3416237e-05 1.3643172e-05)
(0.0017237326 1.1582489e-05 1.1179121e-05)
(0.0016206928 1.0304892e-05 9.345581e-06)
(0.0015321593 9.3257905e-06 7.8957152e-06)
(0.0014551546 8.5052963e-06 6.6953109e-06)
(0.0013875459 7.7746331e-06 5.6760577e-06)
(0.0013277612 7.1034279e-06 4.8034866e-06)
(0.001274601 6.4798495e-06 4.0581565e-06)
(0.0012271179 5.8999451e-06 3.4261582e-06)
(0.0011845424 5.3625302e-06 2.8950708e-06)
(0.001146235 4.8670212e-06 2.4526302e-06)
(0.0011116558 4.4125988e-06 2.0869767e-06)
(0.0010803434 3.9980123e-06 1.7867453e-06)
(0.0010519002 3.6214597e-06 1.5416131e-06)
(0.0010259819 3.2805942e-06 1.3421859e-06)
(0.001002289 2.9733955e-06 1.1797315e-06)
(0.00098056199 2.697949e-06 1.0463196e-06)
(0.00096057571 2.4519205e-06 9.3658886e-07)
(0.00094213242 2.2325676e-06 8.469334e-07)
(0.00092505792 2.0373877e-06 7.7316525e-07)
(0.00090920047 1.8640897e-06 7.1184206e-07)
(0.00089442818 1.7104629e-06 6.6046638e-07)
(0.0008806259 1.5743823e-06 6.1707324e-07)
(0.00086769295 1.4538615e-06 5.8005333e-07)
(0.00085554128 1.3470716e-06 5.4811478e-07)
(0.00084409387 1.2523499e-06 5.2023886e-07)
(0.00083328322 1.1681988e-06 4.95628e-07)
(0.00082305015 1.0932615e-06 4.7365263e-07)
(0.00081334267 1.0262298e-06 4.537826e-07)
(0.00080411486 9.6585902e-07 4.3554488e-07)
(0.00079532615 9.1131105e-07 4.1865038e-07)
(0.00078694071 8.6191697e-07 4.0290722e-07)
(0.00077892675 8.1708257e-07 3.8816804e-07)
(0.00077125603 7.7627671e-07 3.7432055e-07)
(0.0007639033 7.3902663e-07 3.6127604e-07)
(0.00075684598 7.0491433e-07 3.4896418e-07)
(0.00075006373 6.735743e-07 3.37332e-07)
(0.00074353822 6.4469354e-07 3.2633637e-07)
(0.00073725294 6.1802474e-07 3.1581818e-07)
(0.00073119314 5.9334825e-07 3.0574416e-07)
(0.00072534528 5.704203e-07 2.9621209e-07)
(0.00071969687 5.4902494e-07 2.8716616e-07)
(0.00071423653 5.2901536e-07 2.7854301e-07)
(0.00070895386 5.1027367e-07 2.7031142e-07)
(0.00070383928 4.9268668e-07 2.6244794e-07)
(0.00069888397 4.7614437e-07 2.5493304e-07)
(0.00069407976 4.6054981e-07 2.4774426e-07)
(0.00068941911 4.4582084e-07 2.4086409e-07)
(0.00068489502 4.3188478e-07 2.3427515e-07)
(0.00068050098 4.1867823e-07 2.2796423e-07)
(0.00067623091 4.0614616e-07 2.2191216e-07)
(0.00067207915 3.9423531e-07 2.1610528e-07)
(0.00066804042 3.8289679e-07 2.1053138e-07)
(0.00066410976 3.7209415e-07 2.0517816e-07)
(0.00066028251 3.6179318e-07 2.0003311e-07)
(0.00065655429 3.519621e-07 1.9508317e-07)
(0.00065292099 3.425696e-07 1.9031882e-07)
(0.00064937872 3.3358661e-07 1.8572859e-07)
(0.00064592384 3.2498816e-07 1.8130607e-07)
(0.00064255288 3.1675131e-07 1.7704079e-07)
(0.00063926261 3.0885655e-07 1.7292494e-07)
(0.00063604992 3.0128314e-07 1.689508e-07)
(0.00063291192 2.9401294e-07 1.6511077e-07)
(0.00062984583 2.8703106e-07 1.6139804e-07)
(0.00062684904 2.8032122e-07 1.5780365e-07)
(0.00062391907 2.7387018e-07 1.5432112e-07)
(0.00062105358 2.6766521e-07 1.5094242e-07)
(0.00061825035 2.6169559e-07 1.4766127e-07)
(0.00061550727 2.5594484e-07 1.4446908e-07)
(0.00061282235 2.5040841e-07 1.4136026e-07)
(0.00061019373 2.4506875e-07 1.3832359e-07)
(0.00060761965 2.3991859e-07 1.3535525e-07)
(0.00060509846 2.3494556e-07 1.3244915e-07)
(0.00060262863 2.3013452e-07 1.2959814e-07)
(0.00060020873 2.254689e-07 1.2680468e-07)
(0.00059783744 2.2093209e-07 1.240758e-07)
(0.00059551348 2.1649884e-07 1.214335e-07)
(0.00059323555 2.1214951e-07 1.1892967e-07)
(0.00059100214 2.0787125e-07 1.1666274e-07)
(0.00058881114 2.0369068e-07 1.1482957e-07)
(0.00058665898 1.9973164e-07 1.1382044e-07)
(0.0005845387 1.9638434e-07 1.1441044e-07)
(0.00058243501 1.948728e-07 1.183737e-07)
(0.00058031396 1.9977396e-07 1.3094452e-07)
(0.0005781161 2.2258529e-07 1.6397616e-07)
(0.00057566369 1.9707009e-07 1.5080628e-07)
(0.00056906201 7.8896392e-07 7.5322617e-07)
(0.0095316863 0.0003313754 0.00022336697)
(0.0092716504 0.00041105942 0.00027052342)
(0.0087756651 0.00040317187 0.00026060062)
(0.0081527518 0.00038218754 0.00024252081)
(0.0075302151 0.00035309574 0.00022101124)
(0.0069425889 0.00031541062 0.00019648834)
(0.006391209 0.00027309198 0.00017102969)
(0.0058791845 0.00023030694 0.00014652546)
(0.0054120202 0.00019001855 0.00012410997)
(0.0049926512 0.00015423459 0.00010436627)
(0.004620592 0.00012408347 8.7479017e-05)
(0.0042931332 9.9809403e-05 7.3327496e-05)
(0.0040063965 8.0956426e-05 6.1601503e-05)
(0.0037559538 6.6672211e-05 5.1918795e-05)
(0.0035372541 5.5985801e-05 4.3907445e-05)
(0.003345947 4.7992057e-05 3.7246646e-05)
(0.0031780884 4.194171e-05 3.167753e-05)
(0.0030302311 3.7262446e-05 2.6997921e-05)
(0.0028994324 3.3540995e-05 2.3051138e-05)
(0.0027832152 3.0490244e-05 1.9714594e-05)
(0.0026795075 2.7915735e-05 1.6890543e-05)
(0.0025865783 2.568784e-05 1.4499382e-05)
(0.002502978 2.3720893e-05 1.2475015e-05)
(0.0024274871 2.1958431e-05 1.0761726e-05)
(0.0023590736 2.0362993e-05 9.3122329e-06)
(0.0022968589 1.8909453e-05 8.08613e-06)
(0.0022400906 1.7580767e-05 7.0489634e-06)
(0.0021881216 1.6364898e-05 6.1714984e-06)
(0.0021403932 1.5251963e-05 5.4283142e-06)
(0.0020964214 1.4233848e-05 4.7973502e-06)
(0.0020557868 1.3303039e-05 4.2604817e-06)
(0.0020181236 1.2451987e-05 3.8027029e-06)
(0.0019831119 1.167391e-05 3.4109599e-06)
(0.0019504718 1.0962756e-05 3.0744206e-06)
(0.0019199589 1.0312855e-05 2.7842594e-06)
(0.0018913593 9.7188336e-06 2.5331798e-06)
(0.0018644851 9.175645e-06 2.3150741e-06)
(0.0018391716 8.6785729e-06 2.1248318e-06)
(0.0018152735 8.2232431e-06 1.9581838e-06)
(0.001792663 7.8056207e-06 1.8115674e-06)
(0.0017712268 7.4219972e-06 1.6820117e-06)
(0.001750865 7.0689379e-06 1.5670709e-06)
(0.0017314886 6.7432689e-06 1.4647419e-06)
(0.0017130186 6.4422726e-06 1.3732751e-06)
(0.0016953848 6.1635575e-06 1.2911592e-06)
(0.0016785241 5.9049775e-06 1.2171202e-06)
(0.00166238 5.6646101e-06 1.1500843e-06)
(0.0016469019 5.4407267e-06 1.0891491e-06)
(0.001632044 5.2317769e-06 1.0335526e-06)
(0.0016177649 5.0363831e-06 9.8265457e-07)
(0.0016040271 4.8533217e-06 9.3589404e-07)
(0.0015907965 4.6815617e-06 8.9273787e-07)
(0.0015780424 4.5201572e-06 8.5278731e-07)
(0.0015657364 4.3681546e-06 8.1576982e-07)
(0.0015538526 4.2246826e-06 7.8138392e-07)
(0.0015423672 4.0890604e-06 7.4934496e-07)
(0.0015312583 3.9607285e-06 7.1941265e-07)
(0.0015205058 3.8391519e-06 6.9138721e-07)
(0.0015100909 3.7238118e-06 6.6509355e-07)
(0.0014999963 3.6142426e-06 6.4038027e-07)
(0.0014902061 3.5100296e-06 6.1710897e-07)
(0.0014807053 3.410798e-06 5.9515972e-07)
(0.00147148 3.3162107e-06 5.7442718e-07)
(0.0014625175 3.2259591e-06 5.5481466e-07)
(0.0014538055 3.139755e-06 5.3623521e-07)
(0.0014453328 3.0573338e-06 5.186131e-07)
(0.0014370889 2.9784695e-06 5.0187876e-07)
(0.0014290637 2.9029579e-06 4.8596893e-07)
(0.001421248 2.8306025e-06 4.7082401e-07)
(0.001413633 2.7612184e-06 4.5639341e-07)
(0.0014062104 2.6946344e-06 4.4262902e-07)
(0.0013989723 2.6306909e-06 4.2948743e-07)
(0.0013919116 2.5692452e-06 4.1693039e-07)
(0.0013850211 2.5101639e-06 4.0492142e-07)
(0.0013782945 2.4533187e-06 3.9342491e-07)
(0.0013717253 2.3985942e-06 3.8241154e-07)
(0.0013653078 2.3458842e-06 3.718516e-07)
(0.0013590364 2.2950852e-06 3.6171749e-07)
(0.0013529058 2.2461032e-06 3.519848e-07)
(0.001346911 2.1988496e-06 3.4262663e-07)
(0.0013410472 2.1532426e-06 3.3362095e-07)
(0.0013353099 2.1091967e-06 3.2494652e-07)
(0.001329695 2.066639e-06 3.1657873e-07)
(0.0013241983 2.0254884e-06 3.084999e-07)
(0.001318816 1.985672e-06 3.006899e-07)
(0.0013135446 1.9471129e-06 2.9313147e-07)
(0.0013083808 1.9097256e-06 2.8580612e-07)
(0.0013033213 1.8734237e-06 2.7870305e-07)
(0.0012983632 1.8381155e-06 2.7181645e-07)
(0.0012935038 1.803714e-06 2.6515373e-07)
(0.0012887402 1.7701702e-06 2.5874234e-07)
(0.0012840698 1.7375326e-06 2.5265029e-07)
(0.0012794889 1.7061214e-06 2.4701396e-07)
(0.0012749925 1.676909e-06 2.4211394e-07)
(0.001270572 1.6524669e-06 2.385189e-07)
(0.0012662098 1.6393336e-06 2.3765981e-07)
(0.0012618709 1.6545762e-06 2.4458228e-07)
(0.0012574959 1.7463723e-06 2.7712449e-07)
(0.0012529717 2.0376732e-06 2.6526442e-07)
(0.0012433358 2.9514818e-06 1.3525334e-06)
(0.0095221617 0.00021179965 0.00022180581)
(0.009269783 0.00029872516 0.00026628967)
(0.0088657772 0.00031669844 0.00025526743)
(0.0083755729 0.000317438 0.00023864265)
(0.0078888426 0.00030841043 0.00021987851)
(0.0074276349 0.00028848207 0.00019850457)
(0.006988258 0.00026048391 0.00017617916)
(0.0065698164 0.00022855168 0.00015444521)
(0.0061756011 0.00019596771 0.00013413534)
(0.0058087146 0.00016504408 0.00011567593)
(0.0054706295 0.00013728621 9.9270839e-05)
(0.0051615551 0.00011345265 8.4947832e-05)
(0.0048808654 9.3684509e-05 7.2600738e-05)
(0.0046272998 7.7712989e-05 6.2044901e-05)
(0.0043991196 6.5057026e-05 5.3064543e-05)
(0.0041942886 5.5163888e-05 4.544363e-05)
(0.0040106431 4.7493347e-05 3.8982754e-05)
(0.0038460219 4.1561375e-05 3.3506381e-05)
(0.0036983537 3.6958192e-05 2.8864075e-05)
(0.0035657105 3.3351174e-05 2.4928487e-05)
(0.0034463343 3.0479503e-05 2.1592135e-05)
(0.003338646 2.8144768e-05 1.8764098e-05)
(0.003241243 2.6200155e-05 1.6367138e-05)
(0.0031528887 2.4539752e-05 1.4335368e-05)
(0.0030724986 2.3088866e-05 1.261249e-05)
(0.0029991252 2.1796112e-05 1.1150135e-05)
(0.0029319421 2.0626904e-05 9.9064815e-06)
(0.0028702292 1.9558161e-05 8.8458151e-06)
(0.0028133589 1.8574037e-05 7.938538e-06)
(0.0027607855 1.7663622e-05 7.1598234e-06)
(0.0027120345 1.6818833e-05 6.4890366e-06)
(0.0026666927 1.6033066e-05 5.9090202e-06)
(0.0026243991 1.5301096e-05 5.4052717e-06)
(0.0025848383 1.461882e-05 4.9656517e-06)
(0.0025477347 1.3982714e-05 4.5801143e-06)
(0.0025128472 1.3389543e-05 4.2403271e-06)
(0.002479964 1.2836282e-05 3.9393562e-06)
(0.0024488994 1.2320058e-05 3.671426e-06)
(0.0024194896 1.1838144e-05 3.431726e-06)
(0.00239159 1.1387939e-05 3.2162518e-06)
(0.0023650729 1.0966985e-05 3.0216607e-06)
(0.0023398248 1.0573e-05 2.8451746e-06)
(0.0023157449 1.0203874e-05 2.6844745e-06)
(0.0022927433 9.8575797e-06 2.5375936e-06)
(0.0022707398 9.5322166e-06 2.4028644e-06)
(0.002249662 9.2260303e-06 2.2788669e-06)
(0.0022294453 8.93742e-06 2.1644006e-06)
(0.0022100312 8.6649299e-06 2.0584385e-06)
(0.0021913666 8.4072371e-06 1.9601013e-06)
(0.0021734038 8.1631539e-06 1.8686326e-06)
(0.0021560989 7.9316211e-06 1.7833671e-06)
(0.0021394122 7.7117242e-06 1.7037078e-06)
(0.0021233074 7.5026022e-06 1.6291506e-06)
(0.0021077512 7.3033788e-06 1.5592831e-06)
(0.0020927129 7.1131867e-06 1.4937194e-06)
(0.0020781645 6.9314159e-06 1.4321047e-06)
(0.0020640799 6.757605e-06 1.3741146e-06)
(0.0020504351 6.5912618e-06 1.3194615e-06)
(0.0020372075 6.4318789e-06 1.267895e-06)
(0.0020243766 6.2790057e-06 1.2191872e-06)
(0.0020119231 6.1322399e-06 1.1731319e-06)
(0.001999829 5.9912199e-06 1.1295435e-06)
(0.0019880776 5.8556122e-06 1.0882497e-06)
(0.0019766531 5.7251061e-06 1.0490965e-06)
(0.0019655411 5.5994079e-06 1.0119384e-06)
(0.0019547276 5.4782441e-06 9.7664653e-07)
(0.0019441999 5.3613894e-06 9.4310091e-07)
(0.0019339458 5.2486495e-06 9.111895e-07)
(0.0019239539 5.1398186e-06 8.8080786e-07)
(0.0019142135 5.0347025e-06 8.5186055e-07)
(0.0019047144 4.9331191e-06 8.2425859e-07)
(0.001895447 4.8348998e-06 7.9792456e-07)
(0.0018864023 4.7398905e-06 7.7278088e-07)
(0.0018775718 4.6479445e-06 7.4875631e-07)
(0.0018689473 4.5589234e-06 7.2578792e-07)
(0.0018605211 4.4726996e-06 7.0381428e-07)
(0.0018522861 4.3891527e-06 6.8277713e-07)
(0.0018442353 4.3081684e-06 6.6262564e-07)
(0.0018363621 4.2296371e-06 6.4330776e-07)
(0.0018286604 4.153457e-06 6.2477704e-07)
(0.0018211241 4.0795288e-06 6.0698871e-07)
(0.0018137478 4.0077543e-06 5.8990094e-07)
(0.0018065261 3.9380373e-06 5.7347277e-07)
(0.001799454 3.8702796e-06 5.5766726e-07)
(0.0017925266 3.8043828e-06 5.4244784e-07)
(0.0017857396 3.740237e-06 5.2777875e-07)
(0.0017790885 3.6777269e-06 5.1362986e-07)
(0.0017725695 3.6167267e-06 4.9997018e-07)
(0.0017661787 3.5571073e-06 4.8677506e-07)
(0.0017599128 3.4987605e-06 4.7402547e-07)
(0.0017537682 3.441653e-06 4.6170971e-07)
(0.0017477416 3.3859638e-06 4.4983612e-07)
(0.0017418294 3.3323818e-06 4.3844301e-07)
(0.0017360272 3.28279e-06 4.2764665e-07)
(0.0017303281 3.2417767e-06 4.1776832e-07)
(0.0017247202 3.2200408e-06 4.0999163e-07)
(0.001719183 3.2421554e-06 4.098505e-07)
(0.001713691 3.364345e-06 4.4114455e-07)
(0.0017081999 3.7072196e-06 4.7353369e-07)
(0.0016974804 4.4611208e-06 1.8634989e-06)
(0.0095012861 0.00013951169 0.00022248511)
(0.0092133349 0.00022408324 0.00026709763)
(0.0088018509 0.0002570094 0.00025529581)
(0.0083306071 0.00026690691 0.0002382081)
(0.0078754299 0.00026502159 0.00021939837)
(0.0074527063 0.0002529565 0.00019823245)
(0.0070564396 0.00023295893 0.00017634609)
(0.0066827538 0.00020836345 0.0001552305)
(0.006331873 0.00018203353 0.00013558338)
(0.0060047052 0.00015603739 0.00011769036)
(0.0057015056 0.00013180401 0.00010166909)
(0.0054220192 0.00011020725 8.7524314e-05)
(0.0051656909 9.1631901e-05 7.5171985e-05)
(0.0049316845 7.6091187e-05 6.4472617e-05)
(0.0047188814 6.3363142e-05 5.5261149e-05)
(0.0045259349 5.3104941e-05 4.736682e-05)
(0.0043513547 4.4932757e-05 4.06249e-05)
(0.0041935865 3.8471359e-05 3.4883033e-05)
(0.0040510752 3.3381245e-05 3.0003996e-05)
(0.0039223115 2.9370508e-05 2.5866182e-05)
(0.0038058643 2.6197262e-05 2.2362868e-05)
(0.0037004012 2.3666731e-05 1.9400962e-05)
(0.0036047 2.1625757e-05 1.6899611e-05)
(0.0035176529 1.9956325e-05 1.4788824e-05)
(0.0034382652 1.8569047e-05 1.3008105e-05)
(0.0033656513 1.7397362e-05 1.1504745e-05)
(0.0032990266 1.6392003e-05 1.0233524e-05)
(0.0032376995 1.551624e-05 9.1565352e-06)
(0.0031810636 1.4743887e-05 8.2421121e-06)
(0.0031285885 1.4056151e-05 7.4635754e-06)
(0.0030798115 1.3438894e-05 6.7985202e-06)
(0.0030343294 1.2881152e-05 6.2282221e-06)
(0.0029917905 1.2374495e-05 5.7369822e-06)
(0.0029518882 1.191242e-05 5.3116664e-06)
(0.0029143553 1.1489692e-05 4.9413535e-06)
(0.0028789586 1.1101928e-05 4.6170013e-06)
(0.0028454946 1.074538e-05 4.3311223e-06)
(0.0028137847 1.0416773e-05 4.0775286e-06)
(0.0027836727 1.0113218e-05 3.8511081e-06)
(0.0027550209 9.8321213e-06 3.6476456e-06)
(0.0027277081 9.5711598e-06 3.4636644e-06)
(0.002701627 9.3282496e-06 3.2963001e-06)
(0.0026766823 9.1015159e-06 3.1431921e-06)
(0.0026527895 8.8892435e-06 3.0023821e-06)
(0.0026298729 8.6898933e-06 2.8722562e-06)
(0.0026078648 8.5020914e-06 2.7514706e-06)
(0.002586704 8.3246177e-06 2.6389092e-06)
(0.0025663358 8.1563958e-06 2.5336418e-06)
(0.0025467102 7.9964767e-06 2.4348839e-06)
(0.002527782 7.8440265e-06 2.3419782e-06)
(0.0025095101 7.6983367e-06 2.2543611e-06)
(0.0024918566 7.5588099e-06 2.1715433e-06)
(0.0024747871 7.4248986e-06 2.0931118e-06)
(0.0024582699 7.2960208e-06 2.0187198e-06)
(0.0024422756 7.1714384e-06 1.9480693e-06)
(0.0024267775 7.0509283e-06 1.8808995e-06)
(0.0024117506 6.9343763e-06 1.8169526e-06)
(0.0023971715 6.8214899e-06 1.7560016e-06)
(0.0023830185 6.711956e-06 1.6978522e-06)
(0.0023692714 6.6055381e-06 1.6423287e-06)
(0.0023559116 6.5020437e-06 1.5892723e-06)
(0.0023429214 6.4013088e-06 1.538538e-06)
(0.0023302844 6.3031821e-06 1.4899939e-06)
(0.0023179851 6.2075267e-06 1.4435166e-06)
(0.0023060089 6.1142035e-06 1.3989931e-06)
(0.0022943424 6.0230683e-06 1.3563257e-06)
(0.0022829727 5.9340576e-06 1.315416e-06)
(0.0022718877 5.8471301e-06 1.2761708e-06)
(0.002261076 5.7622041e-06 1.2385031e-06)
(0.0022505267 5.6791983e-06 1.2023317e-06)
(0.0022402296 5.5980419e-06 1.1675831e-06)
(0.0022301752 5.5186713e-06 1.134188e-06)
(0.0022203542 5.4410303e-06 1.1020809e-06)
(0.002210758 5.3650632e-06 1.0711996e-06)
(0.0022013784 5.2907189e-06 1.0414852e-06)
(0.0021922076 5.2179493e-06 1.0128812e-06)
(0.0021832381 5.1467101e-06 9.8533813e-07)
(0.0021744628 5.0769575e-06 9.5880332e-07)
(0.0021658752 5.0086496e-06 9.3323058e-07)
(0.0021574688 4.9417433e-06 9.0857445e-07)
(0.0021492375 4.8761986e-06 8.847918e-07)
(0.0021411756 4.8119665e-06 8.6183969e-07)
(0.0021332776 4.7490001e-06 8.3967867e-07)
(0.0021255383 4.6872394e-06 8.1827059e-07)
(0.0021179527 4.6266227e-06 7.9757649e-07)
(0.0021105161 4.5670675e-06 7.775611e-07)
(0.0021032242 4.5084822e-06 7.5818492e-07)
(0.0020960727 4.4507549e-06 7.3941212e-07)
(0.0020890577 4.3937754e-06 7.2120276e-07)
(0.0020821756 4.3374555e-06 7.0352091e-07)
(0.002075423 4.2818098e-06 6.8632073e-07)
(0.0020687967 4.227133e-06 6.6956115e-07)
(0.0020622937 4.1743531e-06 6.5320308e-07)
(0.002055911 4.1258132e-06 6.3726228e-07)
(0.0020496453 4.0868299e-06 6.219847e-07)
(0.0020434926 4.0687771e-06 6.087474e-07)
(0.0020374483 4.094877e-06 6.0452186e-07)
(0.0020315149 4.209426e-06 6.3987799e-07)
(0.0020256647 4.4797479e-06 7.168844e-07)
(0.0020144539 4.9057774e-06 2.269525e-06)
(0.0094902877 9.6726608e-05 0.00022289229)
(0.00917661 0.00016632333 0.00026788105)
(0.0087449456 0.00019969046 0.00025550648)
(0.0082664657 0.00021101604 0.00023762681)
(0.00781215 0.0002109939 0.0002181603)
(0.0073950862 0.0002028236 0.00019646328)
(0.0070087986 0.00018827265 0.00017418493)
(0.006648835 0.00016968865 0.0001528463)
(0.0063142174 0.00014929331 0.00013312182)
(0.0060045996 0.00012875288 0.0001152379)
(0.0057192201 0.00010923292 9.9256792e-05)
(0.0054570682 9.1490071e-05 8.5148909e-05)
(0.0052170782 7.5923401e-05 7.2816211e-05)
(0.0049981259 6.264333e-05 6.2119133e-05)
(0.0047989841 5.1561152e-05 5.2900047e-05)
(0.0046183234 4.2472277e-05 4.4997975e-05)
(0.0044547458 3.5118725e-05 3.8256897e-05)
(0.0043068267 2.9230544e-05 3.2530441e-05)
(0.0041731526 2.4550834e-05 2.7684338e-05)
(0.0040523509 2.084911e-05 2.3597361e-05)
(0.0039431142 1.7926911e-05 2.0161345e-05)
(0.0038442168 1.5618598e-05 1.7280681e-05)
(0.0037545253 1.3789363e-05 1.4871531e-05)
(0.0036730042 1.2331758e-05 1.2860862e-05)
(0.0035987172 1.1161538e-05 1.1185211e-05)
(0.0035308247 1.0213366e-05 9.7889738e-06)
(0.0034685786 9.4380826e-06 8.6250713e-06)
(0.0034113173 8.7971279e-06 7.6543152e-06)
(0.0033584589 8.2627199e-06 6.84394e-06)
(0.0033094933 7.8140802e-06 6.1664551e-06)
(0.0032639753 7.434824e-06 5.5988451e-06)
(0.0032215172 7.1121301e-06 5.1219277e-06)
(0.0031817817 6.8360964e-06 4.7197273e-06)
(0.0031444758 6.5990214e-06 4.3789729e-06)
(0.0031093448 6.39478e-06 4.0886799e-06)
(0.0030761678 6.2184052e-06 3.8397977e-06)
(0.0030447526 6.0657957e-06 3.6248785e-06)
(0.003014932 5.9335268e-06 3.4378181e-06)
(0.0029865602 5.8186974e-06 3.2736179e-06)
(0.0029595097 5.7188204e-06 3.1282055e-06)
(0.002933669 5.6317508e-06 2.9982621e-06)
(0.0029089401 5.555627e-06 2.8810964e-06)
(0.0028852364 5.488825e-06 2.7745339e-06)
(0.0028624815 5.429914e-06 2.6768096e-06)
(0.0028406075 5.3776445e-06 2.5865049e-06)
(0.0028195538 5.3309246e-06 2.5024723e-06)
(0.0027992664 5.2888094e-06 2.4237882e-06)
(0.0027796963 5.2504813e-06 2.3497119e-06)
(0.0027607998 5.2152429e-06 2.2796375e-06)
(0.002742537 5.1824986e-06 2.2130839e-06)
(0.0027248717 5.1517669e-06 2.1496547e-06)
(0.0027077708 5.122669e-06 2.0890224e-06)
(0.0026912041 5.0948952e-06 2.03092e-06)
(0.0026751435 5.0680859e-06 1.9751367e-06)
(0.0026595636 5.0410655e-06 1.9215392e-06)
(0.0026444411 5.0142587e-06 1.8699672e-06)
(0.002629754 4.988018e-06 1.8202522e-06)
(0.0026154815 4.9620732e-06 1.7722786e-06)
(0.0026016045 4.936142e-06 1.7259609e-06)
(0.0025881054 4.9100854e-06 1.6812148e-06)
(0.0025749674 4.8838327e-06 1.6379656e-06)
(0.002562175 4.8573402e-06 1.5961469e-06)
(0.0025497136 4.8305816e-06 1.555693e-06)
(0.0025375693 4.803539e-06 1.5165483e-06)
(0.0025257292 4.7761748e-06 1.4786615e-06)
(0.002514181 4.7483836e-06 1.4419874e-06)
(0.0025029134 4.7202751e-06 1.4064833e-06)
(0.0024919154 4.6919146e-06 1.3721028e-06)
(0.0024811765 4.6632905e-06 1.3387983e-06)
(0.002470687 4.6344015e-06 1.3065303e-06)
(0.0024604377 4.6052672e-06 1.2752609e-06)
(0.0024504197 4.5759079e-06 1.2449543e-06)
(0.0024406247 4.5463461e-06 1.2155765e-06)
(0.0024310448 4.5166018e-06 1.1870937e-06)
(0.0024216723 4.4866965e-06 1.1594732e-06)
(0.0024125001 4.4566519e-06 1.1326848e-06)
(0.0024035213 4.4264901e-06 1.1066973e-06)
(0.0023947295 4.3962294e-06 1.0814827e-06)
(0.0023861184 4.3658894e-06 1.0570126e-06)
(0.0023776821 4.3354852e-06 1.0332598e-06)
(0.0023694149 4.3050331e-06 1.0101965e-06)
(0.0023613115 4.2745361e-06 9.8779472e-07)
(0.0023533667 4.243995e-06 9.6603018e-07)
(0.0023455757 4.2133962e-06 9.448739e-07)
(0.0023379338 4.1827217e-06 9.2429886e-07)
(0.0023304365 4.1519263e-06 9.0427563e-07)
(0.0023230798 4.1209544e-06 8.847725e-07)
(0.0023158598 4.0897249e-06 8.6575282e-07)
(0.0023087726 4.0581564e-06 8.4717287e-07)
(0.002301815 4.0261917e-06 8.2898122e-07)
(0.0022949838 3.9938758e-06 8.11107e-07)
(0.0022882766 3.9615308e-06 7.934625e-07)
(0.002281691 3.9300779e-06 7.759436e-07)
(0.0022752261 3.9016912e-06 7.5847905e-07)
(0.002268882 3.8809411e-06 7.4124614e-07)
(0.0022626608 3.8766487e-06 7.2572606e-07)
(0.0022565686 3.9043045e-06 7.1958013e-07)
(0.0022506189 3.9866551e-06 7.5579986e-07)
(0.0022447715 4.1391013e-06 8.4931792e-07)
(0.002233564 4.2832253e-06 2.4122104e-06)
(0.0094843561 6.6886586e-05 0.00022303624)
(0.0091549219 0.00011904886 0.00026838771)
(0.0087072816 0.00014772497 0.00025588053)
(0.0082191888 0.00015892952 0.00023765677)
(0.0077602858 0.00016026049 0.00021787143)
(0.0073412804 0.00015505102 0.00019586613)
(0.0069552494 0.00014481701 0.00017327438)
(0.0065978366 0.00013121474 0.00015165024)
(0.0062677954 0.00011592881 0.00013169211)
(0.0059642872 0.00010028521 0.0001136244)
(0.0056860598 8.5214432e-05 9.7497522e-05)
(0.0054316726 7.1330408e-05 8.3272196e-05)
(0.0051997008 5.89843e-05 7.0844884e-05)
(0.0049887459 4.8311754e-05 6.0073374e-05)
(0.0047973943 3.9291582e-05 5.079889e-05)
(0.0046242055 3.1804353e-05 4.2859902e-05)
(0.0044677269 2.5679085e-05 3.6099806e-05)
(0.0043265179 2.0725785e-05 3.037129e-05)
(0.0041991724 1.6756343e-05 2.5538702e-05)
(0.004084339 1.3596837e-05 2.1479083e-05)
(0.0039807371 1.1093752e-05 1.8082323e-05)
(0.0038871692 9.1161622e-06 1.525079e-05)
(0.0038025288 7.5553793e-06 1.2898647e-05)
(0.003725804 6.3231346e-06 1.0950986e-05)
(0.0036560786 5.348818e-06 9.3426777e-06)
(0.0035925304 4.5751806e-06 8.0166134e-06)
(0.0035344253 3.9620992e-06 6.9239484e-06)
(0.0034811131 3.4726278e-06 6.025074e-06)
(0.0034320221 3.0815209e-06 5.2862645e-06)
(0.0033866501 2.7702765e-06 4.679211e-06)
(0.0033445586 2.5236731e-06 4.1805223e-06)
(0.0033053662 2.3295862e-06 3.7707535e-06)
(0.0032687419 2.1784981e-06 3.433745e-06)
(0.0032343982 2.0629063e-06 3.1561107e-06)
(0.0032020863 1.976809e-06 2.926797e-06)
(0.0031715907 1.9153176e-06 2.7367034e-06)
(0.0031427248 1.8743802e-06 2.5783561e-06)
(0.0031153267 1.8506057e-06 2.4456296e-06)
(0.0030892563 1.8411249e-06 2.3335226e-06)
(0.0030643915 1.8434998e-06 2.2379673e-06)
(0.003040626 1.855645e-06 2.1556646e-06)
(0.0030178671 1.8757815e-06 2.0839526e-06)
(0.0029960335 1.9023806e-06 2.0206944e-06)
(0.0029750538 1.9341336e-06 1.9641819e-06)
(0.0029548649 1.9699144e-06 1.9130528e-06)
(0.0029354109 2.0087622e-06 1.8662271e-06)
(0.0029166424 2.0498583e-06 1.8228516e-06)
(0.0028985148 2.09251e-06 1.7822571e-06)
(0.0028809886 2.1361378e-06 1.7439152e-06)
(0.0028640277 2.1802719e-06 1.7074097e-06)
(0.0028476 2.224553e-06 1.6724153e-06)
(0.0028316758 2.2687615e-06 1.6386553e-06)
(0.0028162284 2.3128936e-06 1.605872e-06)
(0.0028012324 2.3570789e-06 1.5738222e-06)
(0.0027866658 2.3978714e-06 1.5431886e-06)
(0.0027725089 2.4362352e-06 1.5136868e-06)
(0.0027587418 2.4734406e-06 1.4848884e-06)
(0.002745346 2.5095352e-06 1.4567012e-06)
(0.002732305 2.5443515e-06 1.4291165e-06)
(0.0027196032 2.577773e-06 1.4021119e-06)
(0.0027072261 2.6097254e-06 1.3756638e-06)
(0.0026951602 2.6401667e-06 1.3497568e-06)
(0.0026833928 2.6690881e-06 1.3243752e-06)
(0.0026719116 2.6965035e-06 1.2995089e-06)
(0.0026607054 2.7223729e-06 1.2751524e-06)
(0.0026497635 2.7463552e-06 1.2513137e-06)
(0.002639076 2.768908e-06 1.2279773e-06)
(0.0026286333 2.7901461e-06 1.2051287e-06)
(0.0026184262 2.8099933e-06 1.1827609e-06)
(0.0026084461 2.8284311e-06 1.1608704e-06)
(0.0025986849 2.8454922e-06 1.1394494e-06)
(0.0025891348 2.8612176e-06 1.1184904e-06)
(0.0025797885 2.8756491e-06 1.0979859e-06)
(0.002570639 2.8888299e-06 1.0779293e-06)
(0.0025616795 2.9008067e-06 1.0583099e-06)
(0.0025529038 2.9116204e-06 1.0391187e-06)
(0.0025443058 2.9213147e-06 1.0203478e-06)
(0.0025358796 2.9299302e-06 1.0019881e-06)
(0.0025276198 2.9375057e-06 9.840311e-07)
(0.002519521 2.9440782e-06 9.664651e-07)
(0.0025115783 2.9496812e-06 9.4927946e-07)
(0.0025037869 2.954339e-06 9.3246113e-07)
(0.0024961421 2.9580686e-06 9.159999e-07)
(0.0024886396 2.9608815e-06 8.9987995e-07)
(0.0024812752 2.9627741e-06 8.8408481e-07)
(0.002474045 2.9637226e-06 8.685952e-07)
(0.0024669452 2.9636885e-06 8.5338144e-07)
(0.0024599723 2.9626127e-06 8.3841374e-07)
(0.0024531231 2.96043e-06 8.2364383e-07)
(0.0024463945 2.9570963e-06 8.0900335e-07)
(0.0024397839 2.952651e-06 7.9439829e-07)
(0.0024332895 2.9473518e-06 7.796937e-07)
(0.0024269099 2.9419139e-06 7.6470906e-07)
(0.0024206457 2.9379216e-06 7.4926015e-07)
(0.0024144993 2.9384193e-06 7.3336471e-07)
(0.0024084767 2.948497e-06 7.182654e-07)
(0.0024025877 2.9751258e-06 7.1113326e-07)
(0.002396846 3.0234616e-06 7.4331359e-07)
(0.0023911946 3.0808311e-06 8.3046596e-07)
(0.0023803644 3.057425e-06 2.2999431e-06)
(0.0094810492 4.4090136e-05 0.00022308885)
(0.0091422796 7.9975483e-05 0.00026874495)
(0.0086839084 0.00010160921 0.00025628771)
(0.0081880903 0.00011101591 0.00023793456)
(0.0077246858 0.00011275118 0.00021798622)
(0.0073029895 0.00010953688 0.00019578738)
(0.0069155191 0.00010266029 0.00017296032)
(0.0065579578 9.3267236e-05 0.0001510852)
(0.006229001 8.2539594e-05 0.00013089045)
(0.005927585 7.1446832e-05 0.00011261412)
(0.0056522063 6.067336e-05 9.630924e-05)
(0.0054012005 5.0670808e-05 8.1936268e-05)
(0.0051729477 4.1706609e-05 6.9390832e-05)
(0.004965887 3.3898117e-05 5.8529098e-05)
(0.0047784814 2.7249954e-05 4.9189878e-05)
(0.0046092054 2.1693073e-05 4.1208774e-05)
(0.0044565535 1.7117437e-05 3.4426142e-05)
(0.0043190553 1.3395518e-05 2.8691657e-05)
(0.0041952917 1.0397811e-05 2.3866804e-05)
(0.0040839086 8.0023302e-06 1.9826011e-05)
(0.0039836292 6.0997695e-06 1.6456861e-05)
(0.0038932634 4.5956619e-06 1.3659715e-05)
(0.0038117126 3.4106726e-06 1.1347011e-05)
(0.0037379734 2.4799285e-06 9.4422922e-06)
(0.0036711359 1.7515116e-06 7.8790902e-06)
(0.0036103859 1.1749042e-06 6.6010325e-06)
(0.0035549935 7.2234175e-07 5.5561195e-06)
(0.0035043108 3.7342642e-07 4.7060693e-06)
(0.0034577717 1.0569809e-07 4.0163447e-06)
(0.0034148763 -9.9088024e-08 3.457414e-06)
(0.0033751872 -2.5333586e-07 3.0054959e-06)
(0.0033383243 -3.6639873e-07 2.6409751e-06)
(0.0033039576 -4.4577817e-07 2.3475732e-06)
(0.0032718009 -4.9748271e-07 2.111826e-06)
(0.0032416065 -5.2634481e-07 1.9226412e-06)
(0.0032131599 -5.3631007e-07 1.7709156e-06)
(0.0031862758 -5.306394e-07 1.6492035e-06)
(0.0031607936 -5.1206122e-07 1.5514415e-06)
(0.0031365743 -4.8287155e-07 1.4727101e-06)
(0.0031134976 -4.4500696e-07 1.4090329e-06)
(0.0030914586 -4.001131e-07 1.3572054e-06)
(0.0030703663 -3.4957976e-07 1.3146562e-06)
(0.0030501409 -2.9459545e-07 1.2793314e-06)
(0.0030307129 -2.3616982e-07 1.2495918e-06)
(0.0030120207 -1.7516661e-07 1.2241414e-06)
(0.0029940105 -1.1232154e-07 1.2019539e-06)
(0.0029766343 -4.8268475e-08 1.182224e-06)
(0.0029598495 1.6450383e-08 1.1643219e-06)
(0.0029436181 8.1355883e-08 1.1477525e-06)
(0.002927906 1.4602546e-07 1.1321241e-06)
(0.0029126825 2.1006027e-07 1.1171191e-06)
(0.0028979201 2.7304951e-07 1.1024393e-06)
(0.0028835935 3.3454194e-07 1.0876605e-06)
(0.0028696773 3.9432346e-07 1.0722026e-06)
(0.0028561514 4.5704838e-07 1.0590088e-06)
(0.0028429997 5.2060059e-07 1.0472575e-06)
(0.0028302035 5.822526e-07 1.0356071e-06)
(0.0028177449 6.416391e-07 1.0238014e-06)
(0.0028056084 6.9901956e-07 1.0118743e-06)
(0.0027937799 7.5456096e-07 9.9986828e-07)
(0.0027822461 8.0835169e-07 9.8781011e-07)
(0.0027709946 8.6046926e-07 9.7571961e-07)
(0.0027600137 9.1102627e-07 9.6360319e-07)
(0.0027492926 9.6019521e-07 9.5144702e-07)
(0.0027388207 1.0080072e-06 9.3926739e-07)
(0.0027285887 1.0528508e-06 9.2746619e-07)
(0.0027185878 1.0958662e-06 9.158288e-07)
(0.0027088089 1.1374998e-06 9.0425342e-07)
(0.0026992438 1.177766e-06 8.9275883e-07)
(0.0026898847 1.216656e-06 8.8136586e-07)
(0.0026807244 1.2541678e-06 8.7007889e-07)
(0.0026717559 1.2903128e-06 8.589069e-07)
(0.0026629726 1.3251069e-06 8.4785312e-07)
(0.0026543682 1.3585733e-06 8.3692241e-07)
(0.0026459367 1.3907414e-06 8.2612098e-07)
(0.0026376723 1.4216368e-06 8.1545251e-07)
(0.0026295698 1.4512905e-06 8.0491988e-07)
(0.0026216238 1.4797315e-06 7.9452205e-07)
(0.0026138294 1.50699e-06 7.8426375e-07)
(0.002606182 1.5330925e-06 7.7414059e-07)
(0.0025986769 1.5580638e-06 7.6415207e-07)
(0.0025913099 1.5819226e-06 7.5429434e-07)
(0.0025840769 1.6046807e-06 7.445636e-07)
(0.0025769739 1.6263502e-06 7.349527e-07)
(0.0025699972 1.6469214e-06 7.2544857e-07)