/*--------------------------------*- C++ -*----------------------------------*\
  =========                 |
  \\      /  F ield         | OpenFOAM: The Open Source CFD Toolbox
   \\    /   O peration     | Website:  https://openfoam.org
    \\  /    A nd           | Version:  7
     \\/     M anipulation  |
\*---------------------------------------------------------------------------*/
FoamFile
{
    version     2.0;
    format      ascii;
    class       volVectorField;
    location    "100/water";
    object      U;
}
// * * * * * * * * * * * * * * * * * * * * * * * * * * * * * * * * * * * * * //

dimensions      [0 1 -1 0 0 0 0];

internalField   nonuniform List<vector> 
54000
(
(0.0090020788 0.00020304468 0.0002044253)
(0.0083186165 0.00023621625 0.00023903307)
(0.0073695045 0.00021363218 0.00021762902)
(0.0063565988 0.00018487568 0.00018965381)
(0.005448657 0.00015530487 0.00016048293)
(0.0046741506 0.00012529685 0.00013052679)
(0.0040192968 9.7050592e-05 0.00010202824)
(0.0034740014 7.2577447e-05 7.7071821e-05)
(0.0030302422 5.2874914e-05 5.6737195e-05)
(0.0026757294 3.806718e-05 4.1215614e-05)
(0.0023947233 2.7636889e-05 3.0036391e-05)
(0.0021713882 2.0688307e-05 2.2335838e-05)
(0.0019919683 1.6235475e-05 1.7152068e-05)
(0.0018455005 1.341557e-05 1.364255e-05)
(0.0017237318 1.1581839e-05 1.117851e-05)
(0.001620692 1.0304265e-05 9.3449869e-06)
(0.0015321587 9.3252006e-06 7.8951518e-06)
(0.001455154 8.5047507e-06 6.6947866e-06)
(0.0013875454 7.7741409e-06 5.6755816e-06)
(0.0013277608 7.1029926e-06 4.803062e-06)
(0.0012746005 6.4794694e-06 4.0577841e-06)
(0.0012271176 5.8996175e-06 3.4258333e-06)
(0.0011845421 5.3622509e-06 2.894791e-06)
(0.0011462347 4.8667839e-06 2.452389e-06)
(0.0011116555 4.4123988e-06 2.0867712e-06)
(0.0010803431 3.997845e-06 1.7865692e-06)
(0.0010519 3.621319e-06 1.5414647e-06)
(0.0010259817 3.2804763e-06 1.3420586e-06)
(0.0010022889 2.973298e-06 1.1796238e-06)
(0.00098056186 2.6978696e-06 1.0462301e-06)
(0.0009605756 2.4518557e-06 9.3651456e-07)
(0.00094213233 2.2325144e-06 8.4687104e-07)
(0.00092505783 2.0373448e-06 7.731143e-07)
(0.0009092004 1.8640576e-06 7.1179941e-07)
(0.00089442813 1.710438e-06 6.6043159e-07)
(0.00088062586 1.5743637e-06 6.1704443e-07)
(0.00086769292 1.4538469e-06 5.8002895e-07)
(0.00085554126 1.3470596e-06 5.4809401e-07)
(0.00084409386 1.2523401e-06 5.2022086e-07)
(0.00083328322 1.1681916e-06 4.9561133e-07)
(0.00082305017 1.093256e-06 4.7363695e-07)
(0.0008133427 1.0262247e-06 4.5376857e-07)
(0.00080411491 9.6585534e-07 4.3553182e-07)
(0.00079532622 9.1130876e-07 4.1863803e-07)
(0.00078694079 8.6191675e-07 4.0289453e-07)
(0.00077892686 8.170845e-07 3.8815492e-07)
(0.00077125617 7.7627984e-07 3.743083e-07)
(0.00076390347 7.3903083e-07 3.6126316e-07)
(0.00075684617 7.0492172e-07 3.4895144e-07)
(0.00075006395 6.7358513e-07 3.3731966e-07)
(0.00074353846 6.4470713e-07 3.2632481e-07)
(0.0007372532 6.1804165e-07 3.1580714e-07)
(0.00073119342 5.9336753e-07 3.057336e-07)
(0.00072534558 5.7044298e-07 2.9620113e-07)
(0.00071969719 5.4905228e-07 2.8715566e-07)
(0.00071423686 5.290462e-07 2.7853376e-07)
(0.00070895421 5.1031004e-07 2.7030188e-07)
(0.00070383965 4.9272708e-07 2.624389e-07)
(0.00069888437 4.7618856e-07 2.5492215e-07)
(0.0006940802 4.6059876e-07 2.477322e-07)
(0.00068941961 4.458751e-07 2.4085102e-07)
(0.00068489559 4.319447e-07 2.3426149e-07)
(0.00068050165 4.1874503e-07 2.2794686e-07)
(0.00067623172 4.0621855e-07 2.2189094e-07)
(0.00067208014 3.9431389e-07 2.1608026e-07)
(0.00066804164 3.8298261e-07 2.105008e-07)
(0.00066411127 3.72188e-07 2.0514073e-07)
(0.00066028439 3.6189552e-07 1.9998828e-07)
(0.00065655662 3.5207282e-07 1.9503039e-07)
(0.00065292385 3.4269006e-07 1.9025648e-07)
(0.00064938223 3.3371813e-07 1.8565786e-07)
(0.00064592811 3.2513329e-07 1.8122574e-07)
(0.00064255805 3.1691098e-07 1.7695026e-07)
(0.0006392688 3.0903198e-07 1.7282313e-07)
(0.00063605731 3.0147653e-07 1.6883841e-07)
(0.00063292067 2.9422773e-07 1.6498855e-07)
(0.00062985613 2.8726885e-07 1.6126534e-07)
(0.00062686109 2.8058404e-07 1.5766162e-07)
(0.00062393309 2.7416406e-07 1.5417157e-07)
(0.00062106979 2.6798993e-07 1.5078628e-07)
(0.00061826899 2.6205342e-07 1.4750112e-07)
(0.00061552862 2.5634218e-07 1.4430783e-07)
(0.00061284669 2.5084454e-07 1.411984e-07)
(0.00061022137 2.4554897e-07 1.3816894e-07)
(0.00060765091 2.4044509e-07 1.3520959e-07)
(0.00060513369 2.3551925e-07 1.3231623e-07)
(0.0006026682 2.3075546e-07 1.2948665e-07)
(0.00060025303 2.2613816e-07 1.2672097e-07)
(0.00059788687 2.2164886e-07 1.2402976e-07)
(0.00059556846 2.1726268e-07 1.2143664e-07)
(0.00059329649 2.1295952e-07 1.189928e-07)
(0.00059106945 2.0872682e-07 1.1680265e-07)
(0.0005888852 2.0458959e-07 1.1506026e-07)
(0.00058674012 2.006784e-07 1.1414893e-07)
(0.0005846272 1.9738883e-07 1.1483699e-07)
(0.00058253109 1.9595359e-07 1.1886076e-07)
(0.00058041785 2.0094407e-07 1.3135505e-07)
(0.00057822806 2.2380522e-07 1.6399527e-07)
(0.00057578505 1.9936836e-07 1.5086795e-07)
(0.0005692361 7.8555146e-07 7.4506526e-07)
(0.0095316809 0.00033136424 0.00022335257)
(0.009271641 0.00041105299 0.00027051347)
(0.0087756589 0.00040316913 0.00026059558)
(0.0081527476 0.00038218542 0.00024251782)
(0.0075302111 0.00035309375 0.00022100924)
(0.0069425848 0.00031540889 0.00019648701)
(0.0063912051 0.00027309054 0.00017102883)
(0.0058791812 0.00023030575 0.00014652489)
(0.0054120172 0.00019001757 0.00012410958)
(0.0049926487 0.00015423379 0.00010436597)
(0.0046205898 0.0001240828 8.7478784e-05)
(0.0042931313 9.9808826e-05 7.3327301e-05)
(0.0040063949 8.0955899e-05 6.1601338e-05)
(0.0037559523 6.6671712e-05 5.1918656e-05)
(0.0035372528 5.5985318e-05 4.3907335e-05)
(0.0033459459 4.7991586e-05 3.7246565e-05)
(0.0031780875 4.1941253e-05 3.1677477e-05)
(0.0030302302 3.7262005e-05 2.6997894e-05)
(0.0028994316 3.3540577e-05 2.3051131e-05)
(0.0027832145 3.0489853e-05 1.9714603e-05)
(0.0026795069 2.7915373e-05 1.6890566e-05)
(0.0025865778 2.5687511e-05 1.4499412e-05)
(0.0025029776 2.3720596e-05 1.2475051e-05)
(0.0024274867 2.1958165e-05 1.0761763e-05)
(0.0023590732 2.0362759e-05 9.3122702e-06)
(0.0022968586 1.8909251e-05 8.0861653e-06)
(0.0022400903 1.7580593e-05 7.0489967e-06)
(0.0021881214 1.6364747e-05 6.1715296e-06)
(0.002140393 1.5251832e-05 5.4283426e-06)
(0.0020964213 1.4233735e-05 4.7973753e-06)
(0.0020557866 1.330294e-05 4.2605033e-06)
(0.0020181235 1.2451897e-05 3.8027214e-06)
(0.0019831118 1.1673829e-05 3.410976e-06)
(0.0019504717 1.0962686e-05 3.074435e-06)
(0.0019199588 1.0312792e-05 2.7842728e-06)
(0.0018913592 9.7187781e-06 2.5331924e-06)
(0.0018644851 9.1755941e-06 2.3150854e-06)
(0.0018391715 8.6785252e-06 2.1248423e-06)
(0.0018152735 8.223199e-06 1.9581954e-06)
(0.0017926629 7.805581e-06 1.8115777e-06)
(0.0017712268 7.4219614e-06 1.6820213e-06)
(0.0017508649 7.0689046e-06 1.5670795e-06)
(0.0017314885 6.7432387e-06 1.4647515e-06)
(0.0017130186 6.4422473e-06 1.373283e-06)
(0.0016953848 6.1635361e-06 1.2911652e-06)
(0.001678524 5.9049635e-06 1.2171241e-06)
(0.00166238 5.6646018e-06 1.1500887e-06)
(0.0016469019 5.4407251e-06 1.0891539e-06)
(0.001632044 5.2317859e-06 1.0335579e-06)
(0.0016177649 5.036402e-06 9.8265863e-07)
(0.0016040271 4.8533505e-06 9.3589888e-07)
(0.0015907966 4.6816013e-06 8.92744e-07)
(0.0015780425 4.5202078e-06 8.5279456e-07)
(0.0015657365 4.3682168e-06 8.1577904e-07)
(0.0015538527 4.2247567e-06 7.8139518e-07)
(0.0015423674 4.0891468e-06 7.4935683e-07)
(0.0015312587 3.9608262e-06 7.1942571e-07)
(0.0015205062 3.8392589e-06 6.91401e-07)
(0.0015100915 3.7239277e-06 6.6510911e-07)
(0.0014999971 3.6143679e-06 6.4039456e-07)
(0.0014902071 3.5101629e-06 6.1712183e-07)
(0.0014807065 3.4109379e-06 5.9517214e-07)
(0.0014714817 3.3163579e-06 5.7443663e-07)
(0.0014625196 3.2261111e-06 5.548203e-07)
(0.0014538081 3.1399126e-06 5.3623561e-07)
(0.0014453361 3.057497e-06 5.1860787e-07)
(0.001437093 2.9786377e-06 5.0186497e-07)
(0.0014290688 2.9031314e-06 4.8594693e-07)
(0.0014212542 2.8307843e-06 4.7079245e-07)
(0.0014136405 2.7614102e-06 4.5635061e-07)
(0.0014062195 2.6948382e-06 4.4257278e-07)
(0.0013989833 2.6309133e-06 4.2941846e-07)
(0.0013919247 2.5694883e-06 4.1684578e-07)
(0.0013850368 2.5104324e-06 4.0482012e-07)
(0.001378313 2.453619e-06 3.9330919e-07)
(0.0013717472 2.3989346e-06 3.8227841e-07)
(0.0013653335 2.3462687e-06 3.7170203e-07)
(0.0013590665 2.2955222e-06 3.6155272e-07)
(0.0013529408 2.2466019e-06 3.5180197e-07)
(0.0013469515 2.1994173e-06 3.4242881e-07)
(0.0013410941 2.1538823e-06 3.3340793e-07)
(0.0013353639 2.1099205e-06 3.2471884e-07)
(0.0013297569 2.0674538e-06 3.1633776e-07)
(0.0013242692 2.0264052e-06 3.0824607e-07)
(0.0013188969 1.9866998e-06 3.0042536e-07)
(0.0013136367 1.9482563e-06 2.9285463e-07)
(0.0013084852 1.910996e-06 2.8551899e-07)
(0.0013034395 1.8748288e-06 2.7840785e-07)
(0.0012984967 1.8396707e-06 2.7151431e-07)
(0.001293654 1.8054359e-06 2.6484722e-07)
(0.0012889089 1.7720814e-06 2.5843438e-07)
(0.0012842586 1.7396658e-06 2.5234371e-07)
(0.0012796997 1.7085234e-06 2.4670917e-07)
(0.0012752271 1.6796542e-06 2.4180741e-07)
(0.0012708322 1.655663e-06 2.3819961e-07)
(0.0012664974 1.643128e-06 2.3729067e-07)
(0.0012621877 1.6591255e-06 2.4404856e-07)
(0.0012578437 1.7515625e-06 2.7606311e-07)
(0.0012533522 2.042362e-06 2.6408387e-07)
(0.0012438035 2.9500154e-06 1.3365328e-06)
(0.0095221557 0.00021180408 0.00022179145)
(0.0092697717 0.00029872977 0.00026627945)
(0.0088657688 0.00031670168 0.00025526198)
(0.0083755669 0.00031743982 0.00023863921)
(0.0078888374 0.00030841135 0.00021987601)
(0.0074276302 0.00028848253 0.00019850274)
(0.0069882539 0.00026048413 0.00017617781)
(0.0065698129 0.00022855178 0.00015444419)
(0.0061755981 0.00019596775 0.00013413454)
(0.005808712 0.00016504411 0.00011567529)
(0.0054706273 0.00013728624 9.9270322e-05)
(0.0051615532 0.00011345269 8.4947407e-05)
(0.0048808639 9.3684562e-05 7.2600388e-05)
(0.0046272985 7.7713054e-05 6.2044612e-05)
(0.0043991185 6.5057099e-05 5.3064306e-05)
(0.0041942877 5.5163962e-05 4.544344e-05)
(0.0040106424 4.7493412e-05 3.8982606e-05)
(0.0038460212 4.1561428e-05 3.3506271e-05)
(0.0036983532 3.6958227e-05 2.8864e-05)
(0.0035657101 3.3351189e-05 2.4928442e-05)
(0.0034463339 3.0479499e-05 2.1592117e-05)
(0.0033386457 2.814475e-05 1.8764102e-05)
(0.0032412427 2.6200123e-05 1.6367157e-05)
(0.0031528885 2.4539711e-05 1.4335399e-05)
(0.0030724984 2.3088821e-05 1.2612526e-05)
(0.002999125 2.1796065e-05 1.1150173e-05)
(0.002931942 2.0626858e-05 9.9065202e-06)
(0.0028702291 1.9558116e-05 8.8458548e-06)
(0.0028133588 1.8573991e-05 7.9385757e-06)
(0.0027607854 1.7663576e-05 7.1598615e-06)
(0.0027120345 1.6818787e-05 6.4890741e-06)
(0.0026666927 1.6033019e-05 5.9090588e-06)
(0.0026243991 1.5301048e-05 5.4053123e-06)
(0.0025848383 1.4618773e-05 4.9656931e-06)
(0.0025477347 1.3982669e-05 4.5801552e-06)
(0.0025128472 1.3389502e-05 4.2403673e-06)
(0.0024799641 1.2836242e-05 3.9393954e-06)
(0.0024488994 1.2320022e-05 3.6714633e-06)
(0.0024194896 1.1838111e-05 3.4317633e-06)
(0.00239159 1.1387911e-05 3.2162868e-06)
(0.0023650728 1.096696e-05 3.0216931e-06)
(0.0023398247 1.057298e-05 2.845203e-06)
(0.0023157448 1.0203858e-05 2.6845024e-06)
(0.0022927433 9.8575702e-06 2.5376196e-06)
(0.0022707397 9.5322117e-06 2.4028867e-06)
(0.0022496619 9.2260319e-06 2.278888e-06)
(0.0022294452 8.9374288e-06 2.1644195e-06)
(0.002210031 8.6649467e-06 2.0584571e-06)
(0.0021913665 8.4072637e-06 1.9601208e-06)
(0.0021734036 8.1631869e-06 1.8686515e-06)
(0.0021560988 7.9316613e-06 1.7833879e-06)
(0.0021394121 7.7117729e-06 1.703731e-06)
(0.0021233073 7.5026589e-06 1.629178e-06)
(0.0021077511 7.3034425e-06 1.5593123e-06)
(0.0020927129 7.1132561e-06 1.4937524e-06)
(0.0020781645 6.9314902e-06 1.4321419e-06)
(0.00206408 6.7576815e-06 1.3741562e-06)
(0.0020504353 6.5913378e-06 1.3195074e-06)
(0.0020372079 6.4319519e-06 1.2679435e-06)
(0.0020243772 6.2790743e-06 1.2192385e-06)
(0.0020119239 6.1322999e-06 1.1731871e-06)
(0.0019998301 5.9912644e-06 1.1296007e-06)
(0.001988079 5.855637e-06 1.0883091e-06)
(0.0019766551 5.725109e-06 1.0491558e-06)
(0.0019655435 5.5993858e-06 1.0119982e-06)
(0.0019547307 5.4781899e-06 9.7670652e-07)
(0.0019442038 5.3612988e-06 9.4315983e-07)
(0.0019339507 5.2485133e-06 9.1124744e-07)
(0.00192396 5.1396373e-06 8.8086353e-07)
(0.0019142209 5.0344705e-06 8.5191423e-07)
(0.0019047234 4.9328314e-06 8.2431144e-07)
(0.0018954579 4.8345514e-06 7.9797575e-07)
(0.0018864154 4.7394743e-06 7.7283234e-07)
(0.0018775873 4.6474559e-06 7.4881083e-07)
(0.0018689658 4.5583577e-06 7.2584743e-07)
(0.001860543 4.4720505e-06 7.0388061e-07)
(0.0018523119 4.3884114e-06 6.8285575e-07)
(0.0018442655 4.3073262e-06 6.627196e-07)
(0.0018363973 4.2286834e-06 6.4342128e-07)
(0.0018287013 4.152382e-06 6.2491611e-07)
(0.0018211717 4.0783142e-06 6.0715858e-07)
(0.0018138028 4.0063872e-06 5.9010804e-07)
(0.0018065894 3.9365015e-06 5.7372298e-07)
(0.0017995267 3.8685596e-06 5.5796701e-07)
(0.00179261 3.8024585e-06 5.4280323e-07)
(0.0017858349 3.7380887e-06 5.2819798e-07)
(0.0017791972 3.6753398e-06 5.1411942e-07)
(0.0017726931 3.6140844e-06 5.0053738e-07)
(0.001766319 3.5542032e-06 4.8742547e-07)
(0.0017600715 3.4955929e-06 4.7476662e-07)
(0.0017539474 3.4382356e-06 4.625476e-07)
(0.0017479434 3.3823321e-06 4.5077594e-07)
(0.0017420561 3.3286069e-06 4.3948888e-07)
(0.001736281 3.2789959e-06 4.2879755e-07)
(0.0017306114 3.2381582e-06 4.1901469e-07)
(0.0017250356 3.2168855e-06 4.1130213e-07)
(0.0017195329 3.2398212e-06 4.1112763e-07)
(0.0017140775 3.3630895e-06 4.4201815e-07)
(0.0017086245 3.7068292e-06 4.7386394e-07)
(0.0016979903 4.4612383e-06 1.8479132e-06)
(0.009501279 0.00013951244 0.00022247041)
(0.0092133214 0.00022408334 0.00026708684)
(0.0088018406 0.0002570086 0.00025528988)
(0.0083305999 0.00026690581 0.00023820432)
(0.0078754239 0.00026502052 0.00021939563)
(0.0074527011 0.00025295556 0.00019823045)
(0.007056435 0.00023295811 0.00017634463)
(0.0066827498 0.00020836274 0.0001552294)
(0.0063318696 0.00018203292 0.00013558254)
(0.0060047022 0.00015603687 0.00011768969)
(0.0057015031 0.00013180358 0.00010166856)
(0.005422017 0.00011020689 8.7523873e-05)
(0.0051656891 9.163161e-05 7.5171623e-05)
(0.004931683 7.6090947e-05 6.4472321e-05)
(0.0047188802 6.3362941e-05 5.5260908e-05)
(0.0045259339 5.3104769e-05 4.7366628e-05)
(0.0043513539 4.4932608e-05 4.0624753e-05)
(0.0041935858 3.847123e-05 3.4882928e-05)
(0.0040510747 3.3381131e-05 3.0003927e-05)
(0.0039223112 2.9370408e-05 2.5866146e-05)
(0.003805864 2.6197175e-05 2.2362858e-05)
(0.003700401 2.3666654e-05 1.9400974e-05)
(0.0036046999 2.162569e-05 1.6899637e-05)
(0.0035176528 1.9956268e-05 1.4788862e-05)
(0.0034382652 1.8568996e-05 1.3008149e-05)
(0.0033656513 1.7397316e-05 1.1504792e-05)
(0.0032990266 1.6391962e-05 1.0233573e-05)
(0.0032376996 1.5516204e-05 9.1565842e-06)
(0.0031810637 1.4743853e-05 8.2421627e-06)
(0.0031285886 1.405612e-05 7.4636274e-06)
(0.0030798116 1.3438866e-05 6.7985743e-06)
(0.0030343295 1.2881126e-05 6.2282773e-06)
(0.0029917906 1.2374473e-05 5.7370398e-06)
(0.0029518883 1.1912402e-05 5.3117241e-06)
(0.0029143554 1.1489677e-05 4.9414112e-06)
(0.0028789587 1.1101918e-05 4.6170576e-06)
(0.0028454947 1.0745375e-05 4.3311777e-06)
(0.0028137848 1.0416775e-05 4.0775821e-06)
(0.0027836728 1.0113223e-05 3.8511611e-06)
(0.002755021 9.8321328e-06 3.6476961e-06)
(0.0027277082 9.5711766e-06 3.4637118e-06)
(0.002701627 9.3282737e-06 3.2963448e-06)
(0.0026766824 9.1015466e-06 3.1432332e-06)
(0.0026527896 8.8892816e-06 3.0024221e-06)
(0.002629873 8.6899385e-06 2.872293e-06)
(0.0026078648 8.5021429e-06 2.7515042e-06)
(0.002586704 8.3246774e-06 2.6389424e-06)
(0.0025663358 8.1564629e-06 2.5336743e-06)
(0.0025467102 7.9965483e-06 2.4349173e-06)
(0.002527782 7.8441006e-06 2.3420132e-06)
(0.00250951 7.6984114e-06 2.2543981e-06)
(0.0024918565 7.5588852e-06 2.1715842e-06)
(0.0024747871 7.4249695e-06 2.093156e-06)
(0.0024582698 7.2960877e-06 2.0187691e-06)
(0.0024422755 7.1714979e-06 1.9481233e-06)
(0.0024267775 7.0509759e-06 1.8809579e-06)
(0.0024117506 6.9344102e-06 1.8170188e-06)
(0.0023971715 6.8215049e-06 1.7560739e-06)
(0.0023830186 6.7119465e-06 1.697929e-06)
(0.0023692717 6.6055007e-06 1.6424108e-06)
(0.002355912 6.5019722e-06 1.5893598e-06)
(0.002342922 6.401194e-06 1.5386308e-06)
(0.0023302852 6.3030171e-06 1.4900912e-06)
(0.0023179862 6.2073063e-06 1.4436176e-06)
(0.0023060105 6.1139194e-06 1.3990974e-06)
(0.0022943445 6.0227093e-06 1.3564322e-06)
(0.0022829753 5.933614e-06 1.3155257e-06)
(0.002271891 5.8465861e-06 1.2762838e-06)
(0.0022610801 5.7615482e-06 1.2386191e-06)
(0.0022505317 5.6784166e-06 1.2024527e-06)
(0.0022402358 5.5971186e-06 1.1677112e-06)
(0.0022301827 5.5175875e-06 1.1343251e-06)
(0.0022203633 5.4397628e-06 1.1022303e-06)
(0.0022107689 5.3635892e-06 1.0713655e-06)
(0.0022013913 5.2890134e-06 1.0416716e-06)
(0.0021922229 5.2159826e-06 1.0130954e-06)
(0.0021832561 5.1444484e-06 9.8558589e-07)
(0.002174484 5.0743624e-06 9.5909271e-07)
(0.0021658999 5.005677e-06 9.3357078e-07)
(0.0021574975 4.9383492e-06 9.0897498e-07)
(0.0021492708 4.8723265e-06 8.8526407e-07)
(0.0021412141 4.8075611e-06 8.6239494e-07)
(0.002133322 4.7439957e-06 8.4032979e-07)
(0.0021255893 4.6815733e-06 8.1902918e-07)
(0.0021180112 4.6202214e-06 7.9845691e-07)
(0.002110583 4.5598565e-06 7.7857564e-07)
(0.0021033005 4.5003846e-06 7.5934955e-07)
(0.0020961596 4.4416982e-06 7.407416e-07)
(0.0020891565 4.3836883e-06 7.2271505e-07)
(0.0020822876 4.3262751e-06 7.0522959e-07)
(0.0020755497 4.2694929e-06 6.8824417e-07)
(0.0020689396 4.213662e-06 6.7171423e-07)
(0.0020624546 4.1597584e-06 6.5560014e-07)
(0.0020560916 4.1101957e-06 6.3991329e-07)
(0.0020498476 4.0703962e-06 6.2489603e-07)
(0.0020437184 4.051889e-06 6.119014e-07)
(0.0020376995 4.0780931e-06 6.0783493e-07)
(0.0020317931 4.1935721e-06 6.429961e-07)
(0.0020259706 4.4663312e-06 7.193097e-07)
(0.0020148239 4.8994932e-06 2.2587855e-06)
(0.0094902806 9.6726802e-05 0.00022287759)
(0.0091765961 0.00016632365 0.00026787027)
(0.008744935 0.00019969065 0.00025550069)
(0.0082664582 0.00021101615 0.00023762325)
(0.0078121437 0.00021099398 0.00021815781)
(0.0073950805 0.00020282363 0.00019646153)
(0.0070087935 0.00018827263 0.0001741837)
(0.0066488306 0.00016968859 0.00015284541)
(0.0063142135 0.00014929324 0.00013312115)
(0.0060045962 0.0001287528 0.00011523738)
(0.0057192172 0.00010923284 9.9256381e-05)
(0.0054570657 9.1490012e-05 8.514858e-05)
(0.0052170761 7.5923354e-05 7.2815945e-05)
(0.0049981241 6.2643298e-05 6.2118919e-05)
(0.0047989826 5.156113e-05 5.289988e-05)
(0.0046183221 4.2472263e-05 4.499785e-05)
(0.0044547447 3.5118714e-05 3.825681e-05)
(0.0043068259 2.9230537e-05 3.2530388e-05)
(0.0041731519 2.4550829e-05 2.7684316e-05)
(0.0040523504 2.0849108e-05 2.3597364e-05)
(0.0039431138 1.7926908e-05 2.0161368e-05)
(0.0038442165 1.5618595e-05 1.728072e-05)
(0.0037545251 1.3789359e-05 1.487158e-05)
(0.0036730041 1.2331753e-05 1.2860917e-05)
(0.0035987172 1.1161532e-05 1.1185268e-05)
(0.0035308246 1.0213359e-05 9.7890306e-06)
(0.0034685786 9.4380747e-06 8.6251283e-06)
(0.0034113174 8.7971221e-06 7.6543729e-06)
(0.003358459 8.2627136e-06 6.8439983e-06)
(0.0033094934 7.8140734e-06 6.166514e-06)
(0.0032639755 7.4348166e-06 5.5989074e-06)
(0.0032215174 7.112123e-06 5.1219906e-06)
(0.0031817819 6.8360914e-06 4.719792e-06)
(0.0031444759 6.5990178e-06 4.3790379e-06)
(0.003109345 6.3947798e-06 4.0887453e-06)
(0.003076168 6.2184067e-06 3.8398612e-06)
(0.0030447528 6.065803e-06 3.6249417e-06)
(0.0030149322 5.9335391e-06 3.4378801e-06)
(0.0029865603 5.8187138e-06 3.2736787e-06)
(0.0029595099 5.7188425e-06 3.1282621e-06)
(0.0029336692 5.6317813e-06 2.9983172e-06)
(0.0029089402 5.5556656e-06 2.8811497e-06)
(0.0028852365 5.4888729e-06 2.7745843e-06)
(0.0028624817 5.4299721e-06 2.6768576e-06)
(0.0028406077 5.3777105e-06 2.5865504e-06)
(0.002819554 5.3309979e-06 2.5025154e-06)
(0.0027992665 5.2888911e-06 2.4238297e-06)
(0.0027796965 5.2505688e-06 2.349751e-06)
(0.0027608 5.2153325e-06 2.2796787e-06)
(0.0027425371 5.1825876e-06 2.2131264e-06)
(0.0027248718 5.1518517e-06 2.1496992e-06)
(0.0027077709 5.122747e-06 2.0890708e-06)
(0.0026912042 5.0949615e-06 2.0309722e-06)
(0.0026751436 5.068139e-06 1.9751914e-06)
(0.0026595637 5.0410978e-06 1.9216e-06)
(0.0026444412 5.0142658e-06 1.8700338e-06)
(0.002629754 4.9879955e-06 1.8203239e-06)
(0.0026154815 4.9620149e-06 1.7723567e-06)
(0.0026016046 4.9360415e-06 1.7260433e-06)
(0.0025881055 4.9099379e-06 1.6813023e-06)
(0.0025749675 4.8836307e-06 1.638059e-06)
(0.0025621752 4.8570755e-06 1.5962444e-06)
(0.0025497139 4.8302457e-06 1.555795e-06)
(0.0025375698 4.8031246e-06 1.5166529e-06)
(0.0025257298 4.7756703e-06 1.478768e-06)
(0.0025141819 4.7477773e-06 1.4420956e-06)
(0.0025029146 4.7195516e-06 1.4065943e-06)
(0.0024919169 4.6910576e-06 1.3722153e-06)
(0.0024811785 4.6622802e-06 1.3389136e-06)
(0.0024706896 4.6332184e-06 1.306649e-06)
(0.0024604409 4.603886e-06 1.275384e-06)
(0.0024504236 4.5743014e-06 1.2450869e-06)
(0.0024406294 4.54448e-06 1.2157203e-06)
(0.0024310504 4.5144386e-06 1.1872543e-06)
(0.002421679 4.4841948e-06 1.1596554e-06)
(0.002412508 4.453762e-06 1.1328944e-06)
(0.0024035306 4.4231566e-06 1.1069421e-06)
(0.0023947403 4.3923906e-06 1.0817717e-06)
(0.002386131 4.3614741e-06 1.0573552e-06)
(0.0023776966 4.3304179e-06 1.0336656e-06)
(0.0023694316 4.2992233e-06 1.0106775e-06)
(0.0023613306 4.2678906e-06 9.8836522e-07)
(0.0023533886 4.2364087e-06 9.6670279e-07)
(0.0023456006 4.2047611e-06 9.4566251e-07)
(0.002337962 4.172917e-06 9.2521813e-07)
(0.0023304686 4.1408249e-06 9.0534212e-07)
(0.0023231161 4.1084239e-06 8.8600338e-07)
(0.0023159007 4.0756332e-06 8.6716665e-07)
(0.0023088187 4.0423699e-06 8.4878818e-07)
(0.0023018668 4.008582e-06 8.3081849e-07)
(0.0022950421 3.9743314e-06 8.1318815e-07)
(0.0022883419 3.9399659e-06 7.958087e-07)
(0.0022817642 3.9064588e-06 7.7857614e-07)
(0.0022753078 3.8760595e-06 7.6141447e-07)
(0.0022689731 3.8534669e-06 7.4450232e-07)
(0.0022627622 3.8477076e-06 7.2929735e-07)
(0.002256681 3.8746022e-06 7.2340579e-07)
(0.0022507431 3.9575031e-06 7.5960173e-07)
(0.002244908 4.1132674e-06 8.5258042e-07)
(0.0022337369 4.2676092e-06 2.4067718e-06)
(0.0094843489 6.6886731e-05 0.00022302149)
(0.0091549079 0.00011904918 0.00026837686)
(0.0087072708 0.00014772519 0.0002558747)
(0.008219181 0.0001589296 0.00023765319)
(0.0077602793 0.00016026046 0.00021786892)
(0.0073412745 0.00015505091 0.00019586436)
(0.0069552442 0.00014481686 0.00017327313)
(0.006597832 0.00013121457 0.00015164934)
(0.0062677914 0.00011592865 0.00013169143)
(0.0059642837 0.00010028507 0.00011362388)
(0.0056860568 8.5214307e-05 9.7497106e-05)
(0.0054316699 7.1330305e-05 8.3271861e-05)
(0.0051996985 5.8984216e-05 7.0844615e-05)
(0.0049887439 4.8311689e-05 6.0073159e-05)
(0.0047973926 3.9291532e-05 5.0798724e-05)
(0.004624204 3.1804315e-05 4.2859779e-05)
(0.0044677257 2.5679054e-05 3.6099724e-05)
(0.004326517 2.0725759e-05 3.0371243e-05)
(0.0041991716 1.6756323e-05 2.5538686e-05)
(0.0040843384 1.3596821e-05 2.1479093e-05)
(0.0039807366 1.1093737e-05 1.8082354e-05)
(0.0038871688 9.1161501e-06 1.5250839e-05)
(0.0038025285 7.5553702e-06 1.2898706e-05)
(0.0037258038 6.3231257e-06 1.0951052e-05)
(0.0036560785 5.3488118e-06 9.3427451e-06)
(0.0035925304 4.5751754e-06 8.0166809e-06)
(0.0035344253 3.9620961e-06 6.9240152e-06)
(0.0034811131 3.4726278e-06 6.0251397e-06)
(0.0034320221 3.081523e-06 5.2863298e-06)
(0.0033866502 2.7702808e-06 4.6792774e-06)
(0.0033445587 2.5236801e-06 4.1805902e-06)
(0.0033053663 2.3295939e-06 3.7708235e-06)
(0.003268742 2.1785081e-06 3.4338171e-06)
(0.0032343983 2.0629194e-06 3.1561829e-06)
(0.0032020865 1.9768258e-06 2.9268672e-06)
(0.0031715909 1.9153363e-06 2.7367735e-06)
(0.0031427249 1.8744019e-06 2.5784247e-06)
(0.0031153269 1.8506315e-06 2.4456975e-06)
(0.0030892565 1.8411575e-06 2.3335888e-06)
(0.0030643917 1.8435378e-06 2.2380307e-06)
(0.0030406262 1.8556915e-06 2.1557247e-06)
(0.0030178674 1.8758351e-06 2.0840107e-06)
(0.0029960338 1.9024445e-06 2.0207513e-06)
(0.0029750541 1.934207e-06 1.9642363e-06)
(0.0029548651 1.9699962e-06 1.9131036e-06)
(0.0029354112 2.0088505e-06 1.8662762e-06)
(0.0029166427 2.049952e-06 1.8229007e-06)
(0.0028985152 2.0926055e-06 1.7823045e-06)
(0.0028809889 2.1362355e-06 1.7439613e-06)
(0.0028640281 2.1803663e-06 1.7074581e-06)
(0.0028476003 2.2246403e-06 1.6724645e-06)
(0.0028316761 2.2688382e-06 1.638708e-06)
(0.0028162287 2.3129549e-06 1.6059274e-06)
(0.0028012327 2.3571197e-06 1.5738808e-06)
(0.0027866661 2.3978854e-06 1.5432522e-06)
(0.0027725091 2.4362179e-06 1.5137545e-06)
(0.0027587419 2.473387e-06 1.484961e-06)
(0.0027453461 2.5094385e-06 1.4567776e-06)
(0.002732305 2.5442064e-06 1.4291953e-06)
(0.0027196032 2.5775729e-06 1.4021944e-06)
(0.0027072261 2.6094639e-06 1.3757512e-06)
(0.0026951602 2.6398354e-06 1.3498458e-06)
(0.0026833927 2.6686799e-06 1.3244659e-06)
(0.0026719115 2.696009e-06 1.2996006e-06)
(0.0026607053 2.7217838e-06 1.2752444e-06)
(0.0026497635 2.7456611e-06 1.2514048e-06)
(0.0026390761 2.7680901e-06 1.2280689e-06)
(0.0026286335 2.7891874e-06 1.2052186e-06)
(0.0026184265 2.8088774e-06 1.182851e-06)
(0.0026084466 2.8271364e-06 1.1609593e-06)
(0.0025986855 2.8439922e-06 1.139539e-06)
(0.0025891357 2.8594814e-06 1.118584e-06)
(0.0025797897 2.8736412e-06 1.0980853e-06)
(0.0025706404 2.8865096e-06 1.0780376e-06)
(0.0025616812 2.8981261e-06 1.058432e-06)
(0.0025529058 2.9085234e-06 1.03926e-06)
(0.0025443081 2.9177387e-06 1.0205155e-06)
(0.0025358822 2.9258038e-06 1.0021888e-06)
(0.0025276226 2.9327512e-06 9.8427276e-07)
(0.0025195241 2.9386045e-06 9.6675569e-07)
(0.0025115816 2.9433861e-06 9.4962865e-07)
(0.0025037903 2.9471144e-06 9.3288183e-07)
(0.0024961456 2.9497973e-06 9.1650098e-07)
(0.0024886431 2.9514328e-06 9.004755e-07)
(0.0024812786 2.9520079e-06 8.8478713e-07)
(0.0024740482 2.9514914e-06 8.694185e-07)
(0.0024669481 2.9498359e-06 8.5434112e-07)
(0.0024599747 2.9469795e-06 8.3952582e-07)
(0.0024531248 2.9428525e-06 8.2492468e-07)
(0.0024463954 2.937412e-06 8.1047316e-07)
(0.0024397839 2.9307112e-06 7.9607642e-07)
(0.0024332882 2.9230285e-06 7.8159962e-07)
(0.0024269073 2.9151288e-06 7.6686513e-07)
(0.0024206415 2.90867e-06 7.5168782e-07)
(0.0024144933 2.9068261e-06 7.3608106e-07)
(0.0024084686 2.914909e-06 7.212721e-07)
(0.0024025775 2.9402843e-06 7.1439849e-07)
(0.0023968337 2.9888463e-06 7.4665596e-07)
(0.0023911805 3.0495014e-06 8.334845e-07)
(0.0023803618 3.0359965e-06 2.2984495e-06)
(0.0094810421 4.4090231e-05 0.00022307407)
(0.0091422655 7.9975684e-05 0.00026873404)
(0.0086838973 0.00010160934 0.00025628183)
(0.0081880824 0.00011101595 0.00023793095)
(0.0077246792 0.00011275115 0.00021798371)
(0.0073029836 0.00010953682 0.00019578562)
(0.0069155139 0.00010266022 0.00017295909)
(0.0065579531 9.3267169e-05 0.00015108432)
(0.006228997 8.2539529e-05 0.0001308898)
(0.0059275814 7.1446776e-05 0.00011261362)
(0.0056522031 6.0673314e-05 9.6308852e-05)
(0.0054011977 5.0670773e-05 8.1935961e-05)
(0.0051729454 4.1706584e-05 6.9390588e-05)
(0.0049658849 3.3898099e-05 5.8528905e-05)
(0.0047784796 2.7249945e-05 4.9189732e-05)
(0.0046092039 2.169307e-05 4.1208669e-05)
(0.0044565522 1.7117437e-05 3.4426077e-05)
(0.0043190543 1.3395522e-05 2.8691625e-05)
(0.0041952908 1.0397817e-05 2.38668e-05)
(0.0040839078 8.0023378e-06 1.9826033e-05)
(0.0039836287 6.0997761e-06 1.6456903e-05)
(0.0038932629 4.5956679e-06 1.3659774e-05)
(0.0038117122 3.4106805e-06 1.134708e-05)
(0.0037379731 2.4799355e-06 9.4423653e-06)
(0.0036711357 1.7515173e-06 7.8791646e-06)
(0.0036103858 1.1749117e-06 6.6011058e-06)
(0.0035549934 7.2234843e-07 5.5561907e-06)
(0.0035043108 3.7343376e-07 4.7061372e-06)
(0.0034577717 1.0570649e-07 4.0164103e-06)
(0.0034148763 -9.9079372e-08 3.4574788e-06)
(0.0033751872 -2.533243e-07 3.0055609e-06)
(0.0033383244 -3.6638815e-07 2.6410399e-06)
(0.0033039577 -4.4576585e-07 2.3476391e-06)
(0.003271801 -4.9746732e-07 2.1118919e-06)
(0.0032416066 -5.2632868e-07 1.9227056e-06)
(0.0032131601 -5.3628979e-07 1.7709792e-06)
(0.0031862759 -5.3061885e-07 1.6492662e-06)
(0.0031607937 -5.1203934e-07 1.5515035e-06)
(0.0031365745 -4.82844e-07 1.4727702e-06)
(0.0031134978 -4.449724e-07 1.409091e-06)
(0.0030914589 -4.0007097e-07 1.3572618e-06)
(0.0030703666 -3.4953158e-07 1.3147104e-06)
(0.0030501412 -2.9454034e-07 1.2793834e-06)
(0.0030307132 -2.3610802e-07 1.2496416e-06)
(0.0030120211 -1.7509711e-07 1.2241891e-06)
(0.0029940109 -1.1224482e-07 1.202e-06)
(0.0029766347 -4.818811e-08 1.1822708e-06)
(0.0029598499 1.6530893e-08 1.1643673e-06)
(0.0029436185 8.1438548e-08 1.1477989e-06)
(0.0029279064 1.4610539e-07 1.1321724e-06)
(0.002912683 2.101333e-07 1.1171672e-06)
(0.0028979205 2.7311324e-07 1.1024905e-06)
(0.0028835939 3.3458898e-07 1.0877142e-06)
(0.0028696777 3.9434903e-07 1.0722592e-06)
(0.0028561517 4.5705145e-07 1.0590688e-06)
(0.002843 5.2057164e-07 1.0473206e-06)
(0.0028302037 5.8218947e-07 1.0356735e-06)
(0.002817745 6.4153605e-07 1.0238695e-06)
(0.0028056085 6.9887172e-07 1.0119454e-06)
(0.0027937799 7.5436141e-07 9.9994232e-07)
(0.0027822459 8.0809524e-07 9.8788509e-07)
(0.0027709943 8.6015045e-07 9.7579367e-07)
(0.0027600134 9.1063794e-07 9.6367714e-07)
(0.0027492922 9.5972918e-07 9.515228e-07)
(0.0027388202 1.0074634e-06 9.3933915e-07)
(0.0027285881 1.0522257e-06 9.2753307e-07)
(0.0027185871 1.0951389e-06 9.1589307e-07)
(0.0027088081 1.136652e-06 9.0431346e-07)
(0.0026992429 1.1767864e-06 8.9281634e-07)
(0.0026898838 1.2155244e-06 8.8141911e-07)
(0.0026807234 1.2528639e-06 8.7013e-07)
(0.0026717548 1.2888083e-06 8.5895577e-07)
(0.0026629713 1.3233713e-06 8.4790127e-07)
(0.0026543668 1.3565721e-06 8.3697458e-07)
(0.002645935 1.388431e-06 8.2617878e-07)
(0.0026376704 1.4189702e-06 8.1552118e-07)
(0.0026295674 1.4482119e-06 8.0500163e-07)
(0.0026216208 1.4761778e-06 7.9462487e-07)
(0.0026138257 1.5028895e-06 7.8439098e-07)
(0.0026061774 1.5283652e-06 7.7430116e-07)
(0.0025986711 1.5526182e-06 7.6435208e-07)
(0.0025913027 1.5756616e-06 7.5454327e-07)
(0.0025840679 1.5974987e-06 7.4486875e-07)
(0.0025769628 1.6181289e-06 7.3532297e-07)
(0.0025699836 1.6375345e-06 7.2589382e-07)