/*--------------------------------*- C++ -*----------------------------------*\
  =========                 |
  \\      /  F ield         | OpenFOAM: The Open Source CFD Toolbox
   \\    /   O peration     | Website:  https://openfoam.org
    \\  /    A nd           | Version:  7
     \\/     M anipulation  |
\*---------------------------------------------------------------------------*/
FoamFile
{
    version     2.0;
    format      ascii;
    class       surfaceScalarField;
    location    "1750/water";
    object      phi;
}
// * * * * * * * * * * * * * * * * * * * * * * * * * * * * * * * * * * * * * //

dimensions      [1 0 -1 0 0 0 0];

internalField   nonuniform List<scalar> 
156660
(
9.905724e-05
6.0010402e-06
6.0528092e-06
8.6847498e-05
6.0555113e-06
6.1542307e-06
7.5687891e-05
5.5111362e-06
5.6484701e-06
6.5441704e-05
5.0404181e-06
5.205769e-06
5.6267661e-05
4.4956436e-06
4.6783991e-06
4.8318019e-05
3.8797648e-06
4.0698777e-06
4.1624776e-05
3.2524449e-06
3.4407981e-06
3.6124897e-05
2.660462e-06
2.839417e-06
3.1692235e-05
2.1345127e-06
2.2981489e-06
2.8162841e-05
1.6926975e-06
1.8366964e-06
2.5361437e-05
1.3399933e-06
1.4614113e-06
2.3124664e-05
1.0698476e-06
1.1669256e-06
2.1315127e-05
8.6875418e-07
9.4078226e-07
1.9825714e-05
7.2110062e-07
7.6831272e-07
1.8577278e-05
6.1248243e-07
6.3595304e-07
1.7513255e-05
5.3125218e-07
5.3277147e-07
1.6593744e-05
4.6879727e-07
4.5071348e-07
1.5790433e-05
4.1913717e-07
3.8417385e-07
1.5082784e-05
3.7829068e-07
3.2935849e-07
1.4455417e-05
3.4367128e-07
2.8369561e-07
1.3896409e-05
3.1361407e-07
2.4539333e-07
1.339622e-05
2.8704448e-07
2.1314452e-07
1.2947015e-05
2.6326031e-07
1.859451e-07
1.2542237e-05
2.4179367e-07
1.6298463e-07
1.2176318e-05
2.223221e-07
1.435969e-07
1.1844484e-05
2.0461481e-07
1.2721881e-07
1.1542609e-05
1.8849494e-07
1.1337974e-07
1.1267116e-05
1.7381573e-07
1.0167795e-07
1.1014892e-05
1.6046272e-07
9.1760816e-08
1.0783252e-05
1.4833968e-07
8.3300561e-08
1.0569851e-05
1.3734905e-07
7.6052133e-08
1.0372614e-05
1.2738863e-07
6.9848333e-08
1.0189731e-05
1.1836805e-07
6.451484e-08
1.001963e-05
1.1020447e-07
5.9896646e-08
9.8609388e-06
1.0281921e-07
5.587169e-08
9.7124594e-06
9.6137962e-08
5.2341368e-08
9.5731439e-06
9.009117e-08
4.9224336e-08
9.4420759e-06
8.4614488e-08
4.6453566e-08
9.3184531e-06
7.9648666e-08
4.3974131e-08
9.2015723e-06
7.5139742e-08
4.174107e-08
9.0908166e-06
7.1038157e-08
3.9717556e-08
8.9856432e-06
6.7301105e-08
3.7872282e-08
8.8855708e-06
6.3894283e-08
3.6178152e-08
8.7901757e-06
6.0780126e-08
3.4614909e-08
8.6990829e-06
5.7926173e-08
3.3166636e-08
8.611959e-06
5.5303729e-08
3.1820117e-08
8.5285072e-06
5.2887444e-08
3.0564433e-08
8.4484619e-06
5.0655054e-08
2.9390291e-08
8.3715848e-06
4.8587064e-08
2.8290023e-08
8.2976614e-06
4.6666169e-08
2.7257194e-08
8.2264975e-06
4.4877473e-08
2.6286392e-08
8.1579202e-06
4.3208773e-08
2.5368509e-08
8.0917731e-06
4.1649051e-08
2.4498032e-08
8.0279108e-06
4.0186962e-08
2.3675349e-08
7.9662006e-06
3.8812661e-08
2.2897525e-08
7.9065219e-06
3.7518412e-08
2.2160234e-08
7.8487639e-06
3.6297843e-08
2.1460166e-08
7.7928242e-06
3.5145169e-08
2.0794575e-08
7.7386083e-06
3.4054674e-08
2.016114e-08
7.6860293e-06
3.3021348e-08
1.9557677e-08
7.6350063e-06
3.2040803e-08
1.8982272e-08
7.5854641e-06
3.1109073e-08
1.8433052e-08
7.537333e-06
3.0222601e-08
1.790849e-08
7.4905478e-06
2.9378218e-08
1.7406988e-08
7.4450476e-06
2.8573002e-08
1.6927198e-08
7.4007756e-06
2.7804217e-08
1.6467768e-08
7.3576783e-06
2.7069569e-08
1.6027644e-08
7.3157057e-06
2.636704e-08
1.5605604e-08
7.2748103e-06
2.5694658e-08
1.5200676e-08
7.2349479e-06
2.5050567e-08
1.4811818e-08
7.1960767e-06
2.4433094e-08
1.4438181e-08
7.158157e-06
2.3840679e-08
1.4078929e-08
7.1211518e-06
2.3271922e-08
1.3733308e-08
7.0850258e-06
2.2725522e-08
1.3400527e-08
7.0497457e-06
2.2200192e-08
1.3079927e-08
7.0152798e-06
2.1694923e-08
1.2770888e-08
6.9815985e-06
2.1208587e-08
1.2472757e-08
6.9486733e-06
2.0740234e-08
1.2184927e-08
6.9164775e-06
2.0288971e-08
1.1906829e-08
6.8849858e-06
1.9853953e-08
1.1637848e-08
6.8541739e-06
1.9434364e-08
1.137747e-08
6.8240194e-06
1.9029433e-08
1.1125126e-08
6.7945006e-06
1.8638486e-08
1.0880263e-08
6.7655976e-06
1.8260764e-08
1.0642325e-08
6.7372913e-06
1.7895564e-08
1.0410772e-08
6.7095641e-06
1.7542102e-08
1.018512e-08
6.6823996e-06
1.7199641e-08
9.9648821e-09
6.6557825e-06
1.6867319e-08
9.7498439e-09
6.6296983e-06
1.654414e-08
9.5399939e-09
6.6041331e-06
1.6229284e-08
9.3360045e-09
6.5790714e-06
1.592199e-08
9.139685e-09
6.554494e-06
1.5622337e-08
8.9550774e-09
6.5303708e-06
1.5332552e-08
8.7906625e-09
6.5066467e-06
1.5060469e-08
8.6636128e-09
6.4832094e-06
1.4827812e-08
8.6095306e-09
6.4598103e-06
1.4693061e-08
8.7060279e-09
6.4358387e-06
1.4826368e-08
9.145145e-09
6.4096303e-06
1.5741734e-08
1.0466765e-08
6.3782855e-06
1.8026576e-08
1.3318209e-08
3.23002e-08
2.7923549e-08
0.00010646494
4.1872385e-06
6.4599816e-06
0.0001002019
5.695418e-06
6.6231353e-06
9.3659588e-05
5.7790389e-06
6.2744098e-06
8.7011589e-05
5.6514782e-06
6.0369387e-06
8.0422927e-05
5.366912e-06
5.7173941e-06
7.4094022e-05
4.9022832e-06
5.3063862e-06
6.8167026e-05
4.3278135e-06
4.8516272e-06
6.2722565e-05
3.717891e-06
4.387032e-06
5.7799049e-05
3.1243144e-06
3.9337144e-06
5.3403345e-05
2.5820689e-06
3.5063329e-06
4.9517402e-05
2.1121062e-06
3.1138299e-06
4.6105483e-05
1.7220197e-06
2.7597474e-06
4.3121558e-05
1.4089355e-06
2.4437429e-06
4.0515558e-05
1.1637552e-06
2.163346e-06
3.8237948e-05
9.7485847e-07
1.9152336e-06
3.6242683e-05
8.3055974e-07
1.6959573e-06
3.4488759e-05
7.2043696e-07
1.5022849e-06
3.2940716e-05
6.3586292e-07
1.3313172e-06
3.1568463e-05
5.7005003e-07
1.1804931e-06
3.0346733e-05
5.1784895e-07
1.0475522e-06
2.9254398e-05
4.7545955e-07
9.3049032e-07
2.8273782e-05
4.401396e-07
8.2752024e-07
2.7390054e-05
4.0994892e-07
7.370401e-07
2.6590699e-05
3.8353955e-07
6.5760858e-07
2.5865102e-05
3.5998888e-07
5.8793075e-07
2.5204197e-05
3.3867633e-07
5.2684262e-07
2.4600205e-05
3.1918361e-07
4.7330347e-07
2.4046429e-05
3.0120192e-07
4.2639019e-07
2.3537073e-05
2.8455204e-07
3.8526713e-07
2.3067119e-05
2.6911098e-07
3.4918241e-07
2.2632208e-05
2.5478163e-07
3.1747784e-07
2.2228528e-05
2.4147381e-07
2.8959531e-07
2.1852744e-05
2.2911073e-07
2.6504126e-07
2.1501947e-05
2.1762893e-07
2.4337259e-07
2.1173591e-05
2.0696954e-07
2.2420573e-07
2.0865444e-05
1.9707568e-07
2.0720866e-07
2.0575549e-05
1.8789253e-07
1.9209398e-07
2.0302183e-05
1.7936724e-07
1.7861345e-07
2.0043829e-05
1.7144909e-07
1.6655324e-07
1.979915e-05
1.6408983e-07
1.5572942e-07
1.956696e-05
1.5724381e-07
1.4598404e-07
1.934621e-05
1.5086895e-07
1.3718218e-07
1.9135969e-05
1.4492652e-07
1.2920883e-07
1.8935407e-05
1.3937905e-07
1.2196305e-07
1.8743783e-05
1.341923e-07
1.1535759e-07
1.8560435e-05
1.2933508e-07
1.0931726e-07
1.8384766e-05
1.2477907e-07
1.0377715e-07
1.8216241e-05
1.2049853e-07
9.8681275e-08
1.8054377e-05
1.1647014e-07
9.3981319e-08
1.7898734e-05
1.1267291e-07
8.9635392e-08
1.7748917e-05
1.0908819e-07
8.560701e-08
1.7604563e-05
1.0570004e-07
8.1862413e-08
1.7465345e-05
1.0249339e-07
7.8373286e-08
1.7330962e-05
9.9452979e-08
7.5116948e-08
1.7201138e-05
9.6564396e-08
7.2072715e-08
1.7075619e-05
9.3816666e-08
6.9221155e-08
1.695417e-05
9.1201129e-08
6.6545119e-08
1.6836577e-05
8.8709138e-08
6.4029549e-08
1.6722638e-05
8.6331946e-08
6.1661033e-08
1.661217e-05
8.406179e-08
5.9427687e-08
1.6505001e-05
8.1891565e-08
5.7318841e-08
1.640097e-05
7.9814915e-08
5.5324827e-08
1.6299929e-05
7.7826163e-08
5.3437114e-08
1.620174e-05
7.5919836e-08
5.164789e-08
1.6106272e-05
7.4091033e-08
4.9950112e-08
1.6013404e-05
7.2334961e-08
4.8337348e-08
1.5923022e-05
7.0647697e-08
4.680386e-08
1.5835019e-05
6.9025704e-08
4.5344252e-08
1.5749294e-05
6.7465507e-08
4.39537e-08
1.5665753e-05
6.5963763e-08
4.2627675e-08
1.5584307e-05
6.4517349e-08
4.1362168e-08
1.5504871e-05
6.3123404e-08
4.0153313e-08
1.5427366e-05
6.1779282e-08
3.8997772e-08
1.5351716e-05
6.0482543e-08
3.7892294e-08
1.5277852e-05
5.923083e-08
3.6833823e-08
1.5205705e-05
5.8022011e-08
3.5819727e-08
1.5135212e-05
5.6854012e-08
3.4847372e-08
1.5066313e-05
5.5724982e-08
3.3914333e-08
1.499895e-05
5.4633147e-08
3.3018401e-08
1.493307e-05
5.3576718e-08
3.2157459e-08
1.4868621e-05
5.2554168e-08
3.1329435e-08
1.4805554e-05
5.1563952e-08
3.0532435e-08
1.4743823e-05
5.0604463e-08
2.9764669e-08
1.4683386e-05
4.9674294e-08
2.902439e-08
1.4624199e-05
4.8771827e-08
2.8309883e-08
1.4566226e-05
4.7895453e-08
2.7619567e-08
1.4509431e-05
4.7043484e-08
2.6951983e-08
1.4453778e-05
4.6214109e-08
2.6305763e-08
1.4399237e-05
4.540542e-08
2.5679917e-08
1.4345777e-05
4.4615733e-08
2.5073782e-08
1.4293367e-05
4.3844231e-08
2.4487691e-08
1.4241972e-05
4.309289e-08
2.3923748e-08
1.4191548e-05
4.2369895e-08
2.3387136e-08
1.4142019e-05
4.1699306e-08
2.2889641e-08
1.4093249e-05
4.1141623e-08
2.2456617e-08
1.4044951e-05
4.0844633e-08
2.2146557e-08
1.3996485e-05
4.116915e-08
2.2123053e-08
1.3946229e-05
4.3012312e-08
2.2985404e-08
1.389015e-05
4.8540251e-08
2.5565807e-08
6.328153e-08
5.0000822e-08
0.00010603565
2.7876425e-06
6.4750379e-06
0.00010074799
4.4145413e-06
6.5685292e-06
9.5493515e-05
4.8594028e-06
6.1741158e-06
9.0256432e-05
4.930369e-06
5.9581921e-06
8.5101366e-05
4.8311767e-06
5.6908011e-06
8.0102875e-05
4.5561762e-06
5.3445981e-06
7.5322251e-05
4.1469521e-06
4.9614853e-06
7.0803266e-05
3.6678926e-06
4.5689837e-06
6.6576264e-05
3.1701903e-06
4.1811254e-06
6.2660725e-05
2.6900109e-06
3.8075976e-06
5.9065443e-05
2.2519319e-06
3.4554566e-06
5.5788936e-05
1.8697304e-06
3.1287957e-06
5.2820978e-05
1.5477473e-06
2.8291458e-06
5.014479e-05
1.2836302e-06
2.5563139e-06
4.7739304e-05
1.07123e-06
2.3091141e-06
4.5581183e-05
9.0281503e-07
2.0858661e-06
4.3646423e-05
7.7048779e-07
1.884709e-06
4.1911533e-05
6.6697375e-07
1.7037793e-06
4.0354306e-05
5.8598197e-07
1.541295e-06
3.8954268e-05
5.2230221e-07
1.3955849e-06
3.769288e-05
4.7175605e-07
1.265091e-06
3.6553576e-05
4.3107982e-07
1.1483634e-06
3.552169e-05
3.9778206e-07
1.0440533e-06
3.4584322e-05
3.6999882e-07
9.5090829e-07
3.3730181e-05
3.4635985e-07
8.677702e-07
3.2949411e-05
3.2587761e-07
7.9356872e-07
3.2233419e-05
3.0784047e-07
7.2733485e-07
3.157471e-05
2.9172985e-07
6.6818107e-07
3.0966769e-05
2.7719265e-07
6.1530128e-07
3.0403928e-05
2.6398098e-07
5.6797022e-07
2.9881258e-05
2.5190846e-07
5.2554316e-07
2.9394455e-05
2.4082713e-07
4.8745e-07
2.8939761e-05
2.306216e-07
4.5318329e-07
2.8513895e-05
2.2120154e-07
4.222939e-07
2.8113985e-05
2.1249195e-07
3.9438674e-07
2.7737518e-05
2.0442797e-07
3.691149e-07
2.7382285e-05
1.9695194e-07
3.4617384e-07
2.7046344e-05
1.9001177e-07
3.2529678e-07
2.6727982e-05
1.8355995e-07
3.0625047e-07
2.6425689e-05
1.7755273e-07
2.8883087e-07
2.6138123e-05
1.7195005e-07
2.7285986e-07
2.5864094e-05
1.6671517e-07
2.5818184e-07
2.5602546e-05
1.6181457e-07
2.446609e-07
2.535253e-05
1.5721709e-07
2.3217765e-07
2.51132e-05
1.5289439e-07
2.2062726e-07
2.4883797e-05
1.4882096e-07
2.0991772e-07
2.4663634e-05
1.4497368e-07
1.9996811e-07
2.4452094e-05
1.4133182e-07
1.9070704e-07
2.4248615e-05
1.3787695e-07
1.820715e-07
2.405269e-05
1.3459264e-07
1.740057e-07
2.3863854e-05
1.314646e-07
1.664599e-07
2.3681684e-05
1.2848057e-07
1.5938923e-07
2.3505794e-05
1.2562916e-07
1.5275411e-07
2.3335829e-05
1.2289866e-07
1.4651966e-07
2.3171462e-05
1.2027634e-07
1.406546e-07
2.3012394e-05
1.1775474e-07
1.3513021e-07
2.2858345e-05
1.153297e-07
1.2992043e-07
2.2709057e-05
1.1299537e-07
1.2500174e-07
2.2564291e-05
1.1074519e-07
1.2035289e-07
2.2423824e-05
1.0857346e-07
1.159546e-07
2.2287451e-05
1.064755e-07
1.1178923e-07
2.2154978e-05
1.0444702e-07
1.0784081e-07
2.2026226e-05
1.024842e-07
1.0409459e-07
2.1901025e-05
1.0058352e-07
1.0053718e-07
2.1779218e-05
9.8741537e-08
9.7156189e-08
2.1660658e-05
9.6954934e-08
9.3940256e-08
2.1545205e-05
9.5221276e-08
9.0879031e-08
2.1432729e-05
9.3538774e-08
8.7962816e-08
2.1323107e-05
9.1905321e-08
8.5182588e-08
2.1216222e-05
9.0318518e-08
8.253016e-08
2.1111965e-05
8.8776368e-08
7.999786e-08
2.1010233e-05
8.7277127e-08
7.7578646e-08
2.0910927e-05
8.5818996e-08
7.5265883e-08
2.0813956e-05
8.4400334e-08
7.3053416e-08
2.0719232e-05
8.30197e-08
7.0935663e-08
2.0626671e-05
8.1675646e-08
6.8907209e-08
2.0536195e-05
8.0366817e-08
6.6963123e-08
2.0447729e-05
7.9091935e-08
6.5098774e-08
2.0361203e-05
7.7849811e-08
6.3309761e-08
2.0276548e-05
7.6639213e-08
6.1592043e-08
2.0193702e-05
7.5458952e-08
5.9941748e-08
2.0112602e-05
7.4307955e-08
5.8355223e-08
2.0033193e-05
7.3184904e-08
5.6829037e-08
1.9955419e-05
7.2088602e-08
5.5359987e-08
1.9879228e-05
7.1017608e-08
5.3944865e-08
1.9804572e-05
6.9970448e-08
5.2580739e-08
1.9731406e-05
6.8945236e-08
5.1264778e-08
1.9659685e-05
6.7940101e-08
4.9994373e-08
1.9589371e-05
6.6953028e-08
4.8767054e-08
1.9520423e-05
6.5982371e-08
4.7580542e-08
1.9452807e-05
6.5028015e-08
4.6433111e-08
1.9386482e-05
6.4094104e-08
4.5323727e-08
1.9321404e-05
6.3194658e-08
4.4253085e-08
1.9257511e-05
6.2366332e-08
4.3225243e-08
1.9194705e-05
6.169516e-08
4.2253127e-08
1.9132798e-05
6.1374068e-08
4.1377421e-08
1.9071394e-05
6.1822423e-08
4.075065e-08
1.9009424e-05
6.3924733e-08
4.1057613e-08
1.8944661e-05
6.9304672e-08
4.3998839e-08
7.9170939e-08
7.466154e-08
0.0001054937
1.9169871e-06
6.4880407e-06
0.00010005365
3.2729596e-06
6.5816334e-06
9.4926077e-05
3.8288995e-06
6.1580776e-06
8.9946373e-05
3.9838109e-06
5.9262629e-06
8.5163276e-05
3.9595077e-06
5.6547657e-06
8.0619137e-05
3.7899369e-06
5.3103784e-06
7.6329462e-05
3.5015547e-06
4.9350725e-06
7.230016e-05
3.1412013e-06
4.5559928e-06
6.8534206e-05
2.7514802e-06
4.1846641e-06
6.5032983e-05
2.3633493e-06
3.8278852e-06
6.1795789e-05
1.9984144e-06
3.490711e-06
5.8818843e-05
1.670376e-06
3.176301e-06
5.6094718e-05
1.3858295e-06
2.886043e-06
5.3612488e-05
1.1457945e-06
2.6200649e-06
5.1358373e-05
9.4764121e-07
2.3777043e-06
4.9316593e-05
7.8676785e-07
2.1578272e-06
4.7470246e-05
6.5779547e-07
1.9590391e-06
4.5802069e-05
5.5532539e-07
1.7798252e-06
4.4295042e-05
4.7437116e-07
1.6186378e-06
4.293283e-05
4.1056666e-07
1.4739479e-06
4.1700078e-05
3.6023235e-07
1.3442759e-06
4.0582591e-05
3.2035743e-07
1.2282094e-06
3.956742e-05
2.8853737e-07
1.1244154e-06
3.8642881e-05
2.6289066e-07
1.0316467e-06
3.7798527e-05
2.4196983e-07
9.48744e-07
3.7025076e-05
2.2467703e-07
8.7465171e-07
3.6314324e-05
2.1018901e-07
8.0840411e-07
3.5659057e-05
1.9788608e-07
7.4911044e-07
3.5052961e-05
1.8731583e-07
6.959728e-07
3.449052e-05
1.7814873e-07
6.4827385e-07
3.3966922e-05
1.7013168e-07
6.0537444e-07
3.3477973e-05
1.6306728e-07
5.6670868e-07
3.3020016e-05
1.5680296e-07
5.3177542e-07
3.2589865e-05
1.5122055e-07
5.0013245e-07
3.218474e-05
1.4622562e-07
4.7139137e-07
3.1802215e-05
1.4174072e-07
4.4521233e-07
3.1440168e-05
1.3770095e-07
4.2129808e-07
3.1096739e-05
1.3405094e-07
3.9938923e-07
3.0770297e-05
1.3074292e-07
3.7925954e-07
3.0459402e-05
1.2773518e-07
3.6071196e-07
3.0162787e-05
1.249909e-07
3.435748e-07
2.9879325e-05
1.2247786e-07
3.2769851e-07
2.960802e-05
1.2016732e-07
3.1295271e-07
2.934798e-05
1.1803383e-07
2.9922353e-07
2.9098408e-05
1.1605461e-07
2.8641136e-07
2.885859e-05
1.1420984e-07
2.7442906e-07
2.8627882e-05
1.1248196e-07
2.632e-07
2.8405701e-05
1.1085558e-07
2.5265683e-07
2.819152e-05
1.0931758e-07
2.4274022e-07
2.7984859e-05
1.078565e-07
2.3339755e-07
2.7785279e-05
1.0646276e-07
2.2458211e-07
2.7592379e-05
1.0512869e-07
2.1625213e-07
2.740579e-05
1.0384734e-07
2.0837037e-07
2.7225174e-05
1.0261112e-07
2.009036e-07
2.705022e-05
1.0140746e-07
1.9382256e-07
2.6880641e-05
1.0023382e-07
1.8710041e-07
2.6716166e-05
9.9092333e-08
1.8071222e-07
2.6556546e-05
9.7980005e-08
1.7463558e-07
2.6401548e-05
9.6892522e-08
1.6885013e-07
2.6250957e-05
9.5827106e-08
1.6333744e-07
2.610457e-05
9.4781699e-08
1.5808042e-07
2.5962199e-05
9.3754714e-08
1.5306362e-07
2.5823666e-05
9.2744885e-08
1.4827259e-07
2.5688804e-05
9.1751003e-08
1.4369409e-07
2.5557458e-05
9.0771783e-08
1.3931597e-07
2.5429481e-05
8.9805215e-08
1.351269e-07
2.5304734e-05
8.8851476e-08
1.3111644e-07
2.5183087e-05
8.7911199e-08
1.2727468e-07
2.5064416e-05
8.6983921e-08
1.2359242e-07
2.4948604e-05
8.6068908e-08
1.2006118e-07
2.4835542e-05
8.5165776e-08
1.1667301e-07
2.4725124e-05
8.4274314e-08
1.1342046e-07
2.4617252e-05
8.3394281e-08
1.1029655e-07
2.4511832e-05
8.2525462e-08
1.0729477e-07
2.4408775e-05
8.1667749e-08
1.0440898e-07
2.4307997e-05
8.0820979e-08
1.0163344e-07
2.4209416e-05
7.9985022e-08
9.8962652e-08
2.4112956e-05
7.9159734e-08
9.6391573e-08
2.4018546e-05
7.8345016e-08
9.3915297e-08
2.3926115e-05
7.7540682e-08
9.1529329e-08
2.3835598e-05
7.6746559e-08
8.9229261e-08
2.3746933e-05
7.5962335e-08
8.7011055e-08
2.366006e-05
7.5187636e-08
8.4870704e-08
2.3574922e-05
7.4421983e-08
8.2804543e-08
2.3491466e-05
7.3664623e-08
8.0808936e-08
2.3409641e-05
7.2914605e-08
7.8880364e-08
2.33294e-05
7.2170672e-08
7.7015484e-08
2.3250698e-05
7.1431325e-08
7.5211018e-08
2.3173493e-05
7.0694883e-08
7.3463643e-08
2.3097745e-05
6.996024e-08
7.1770079e-08
2.3023418e-05
6.9228008e-08
7.012703e-08
2.2950477e-05
6.8503506e-08
6.8531172e-08
2.2878889e-05
6.7802911e-08
6.6979699e-08
2.2808619e-05
6.7165093e-08
6.5471574e-08
2.2739625e-05
6.6675267e-08
6.401336e-08
2.267185e-05
6.6507095e-08
6.2642326e-08
2.2605149e-05
6.6990743e-08
6.1532385e-08
2.2538888e-05
6.8686021e-08
6.1499864e-08
2.2471121e-05
7.2226927e-08
6.4845118e-08
7.6722828e-08
9.8461312e-08
0.0001051979
1.3340884e-06
6.4961221e-06
9.9496561e-05
2.3731022e-06
6.6011947e-06
9.4262459e-05
2.9019224e-06
6.1610799e-06
8.9251186e-05
3.0856642e-06
5.9094196e-06
8.4493498e-05
3.0947347e-06
5.6224614e-06
8.0033635e-05
2.9846657e-06
5.265134e-06
7.5876907e-05
2.7790155e-06
4.8792667e-06
7.2014635e-05
2.5106844e-06
4.4927895e-06
6.8436293e-05
2.2128729e-06
4.116949e-06
6.5131387e-05
1.9107259e-06
3.7575292e-06
6.208941e-05
1.6217321e-06
3.4186596e-06
5.9299432e-05
1.3573877e-06
3.1029661e-06
5.6749589e-05
1.1240344e-06
2.8116387e-06
5.4426788e-05
9.2377946e-07
2.5448157e-06
5.2316754e-05
7.5572798e-07
2.3019466e-06
5.0404313e-05
6.1717853e-07
2.0820302e-06
4.8673788e-05
5.0454349e-07
1.8837772e-06
4.7109414e-05
4.139718e-07
1.7057274e-06
4.5695713e-05
3.4173649e-07
1.5463363e-06
4.4417792e-05
2.8445146e-07
1.4040359e-06
4.3261575e-05
2.3917113e-07
1.277278e-06
4.2213952e-05
2.0341505e-07
1.1645652e-06
4.1262871e-05
1.7514743e-07
1.0644718e-06
4.039737e-05
1.5273234e-07
9.7565896e-07
3.9607583e-05
1.3487527e-07
8.9688144e-07
3.8884688e-05
1.2055566e-07
8.2701638e-07
3.8220848e-05
1.090109e-07
7.6501853e-07
3.7609155e-05
9.9633835e-08
7.0994486e-07
3.7043542e-05
9.197745e-08
6.6095088e-07
3.6518702e-05
8.5705831e-08
6.172829e-07
3.6030009e-05
8.0552397e-08
5.7827311e-07
3.5573433e-05
7.6308279e-08
5.4333412e-07
3.5145475e-05
7.2811277e-08
5.1195031e-07
3.4743091e-05
6.9934133e-08
4.8367026e-07
3.4363641e-05
6.7575442e-08
4.5810068e-07
3.4004828e-05
6.5652883e-08
4.3489999e-07
3.3664659e-05
6.4098566e-08
4.1377211e-07
3.3341393e-05
6.2855916e-08
3.9446095e-07
3.3033513e-05
6.1877027e-08
3.7674529e-07
3.2739693e-05
6.1121115e-08
3.6043425e-07
3.2458768e-05
6.0553068e-08
3.453633e-07
3.2189712e-05
6.0142667e-08
3.3139054e-07
3.1931622e-05
5.9863641e-08
3.1839376e-07
3.1683696e-05
5.9693136e-08
3.0626734e-07
3.1445219e-05
5.9611221e-08
2.9492011e-07
3.1215555e-05
5.9600626e-08
2.8427313e-07
3.0994132e-05
5.9646551e-08
2.7425805e-07
3.0780436e-05
5.973617e-08
2.6481539e-07
3.0574002e-05
5.9858668e-08
2.5589333e-07
3.0374407e-05
6.0004924e-08
2.4744661e-07
3.0181267e-05
6.0167629e-08
2.3943548e-07
2.9994229e-05
6.0341242e-08
2.3182486e-07
2.9812971e-05
6.0521801e-08
2.2458373e-07
2.9637193e-05
6.0704456e-08
2.1768458e-07
2.9466629e-05
6.0867245e-08
2.1110457e-07
2.9301024e-05
6.1016988e-08
2.0482179e-07
2.914014e-05
6.1160851e-08
1.9881566e-07
2.8983756e-05
6.1294944e-08
1.9306838e-07
2.8831669e-05
6.1415453e-08
1.8756389e-07
2.8683688e-05
6.1520952e-08
1.8228763e-07
2.8539633e-05
6.1610521e-08
1.7722636e-07
2.8399336e-05
6.1683771e-08
1.7236784e-07
2.8262639e-05
6.1740472e-08
1.6770087e-07
2.8129394e-05
6.1780728e-08
1.6321517e-07
2.7999461e-05
6.1803917e-08
1.5890119e-07
2.7872709e-05
6.1807373e-08
1.5475036e-07
2.7749012e-05
6.1793578e-08
1.5075444e-07
2.7628253e-05
6.1764855e-08
1.469056e-07
2.7510319e-05
6.1720997e-08
1.4319662e-07
2.7395105e-05
6.1662115e-08
1.3962083e-07
2.728251e-05
6.1588595e-08
1.3617201e-07
2.7172439e-05
6.1501062e-08
1.328442e-07
2.7064802e-05
6.1399978e-08
1.296319e-07
2.6959511e-05
6.1285945e-08
1.2652992e-07
2.6856486e-05
6.1159525e-08
1.2353326e-07
2.6755649e-05
6.1021324e-08
1.2063733e-07
2.6656924e-05
6.0871823e-08
1.1783766e-07
2.6560242e-05
6.0711699e-08
1.1513015e-07
2.6465535e-05
6.0541359e-08
1.1251077e-07
2.6372738e-05
6.0361328e-08
1.0997581e-07
2.6281791e-05
6.0171954e-08
1.0752162e-07
2.6192636e-05
5.9973579e-08
1.051447e-07
2.6105215e-05
5.9766349e-08
1.0284182e-07
2.6019477e-05
5.9550273e-08
1.0060969e-07
2.5935371e-05
5.9325159e-08
9.8445288e-08
2.585285e-05
5.9090513e-08
9.6345381e-08
2.5771868e-05
5.8845502e-08
9.4306943e-08
2.5692384e-05
5.8588998e-08
9.2326763e-08
2.5614357e-05
5.8319806e-08
9.0401449e-08
2.5537753e-05
5.8037087e-08
8.8527348e-08
2.5462539e-05
5.7741669e-08
8.6700196e-08
2.5388689e-05
5.74384e-08
8.4915146e-08
2.5316184e-05
5.7141437e-08
8.3166618e-08
2.5245017e-05
5.6882582e-08
8.1449636e-08
2.51752e-05
5.6726045e-08
7.9765804e-08
2.510677e-05
5.678792e-08
7.8149202e-08
2.5039729e-05
5.7251588e-08
7.6780981e-08
2.4973573e-05
5.8330898e-08
7.6510213e-08
2.4906079e-05
5.9989486e-08
7.9732181e-08
6.0715024e-08
1.1287826e-07
0.00010503672
9.0789371e-07
6.5005614e-06
9.9140653e-05
1.6524914e-06
6.6166801e-06
9.3788329e-05
2.0825241e-06
6.1717217e-06
8.8708526e-05
2.2549373e-06
5.91053e-06
8.3909682e-05
2.278404e-06
5.6151748e-06
7.9437109e-05
2.2074821e-06
5.2497564e-06
7.5296201e-05
2.0645348e-06
4.8553893e-06
7.1474034e-05
1.8722543e-06
4.4605969e-06
6.7955013e-05
1.6547667e-06
4.0771269e-06
6.4723621e-05
1.4313505e-06
3.7107669e-06
6.1764423e-05
1.2154297e-06
3.3655007e-06
5.9062056e-05
1.0158641e-06
3.0438911e-06
5.6601108e-05
8.3782742e-07
2.7471548e-06
5.4365944e-05
6.8344646e-07
2.475497e-06
5.2340648e-05
5.5258526e-07
2.2284383e-06
5.0509125e-05
4.4366547e-07
2.0050361e-06
4.8855299e-05
3.5433452e-07
1.8040352e-06
4.7363353e-05
2.8193589e-07
1.6239821e-06
4.6017963e-05
2.2381342e-07
1.4633127e-06
4.4804502e-05
1.774938e-07
1.3204181e-06
4.3709199e-05
1.407809e-07
1.1936934e-06
4.2719248e-05
1.1179155e-07
1.081575e-06
4.1822875e-05
8.8954525e-08
9.8256583e-07
4.1009364e-05
7.0987944e-08
8.9525469e-07
4.0269054e-05
5.6861795e-08
8.1832381e-07
3.9593306e-05
4.5719139e-08
7.5058476e-07
3.8974405e-05
3.6977864e-08
6.9093439e-07
3.8405585e-05
3.0067363e-08
6.3838631e-07
3.7880869e-05
2.4650853e-08
5.9204243e-07
3.7395029e-05
2.0439994e-08
5.5110608e-07
3.6943514e-05
1.7190279e-08
5.1487714e-07
3.6522366e-05
1.4716748e-08
4.8273957e-07
3.6128148e-05
1.2874793e-08
4.5415392e-07
3.5757883e-05
1.154991e-08
4.2864945e-07
3.5408991e-05
1.065076e-08
4.0581705e-07
3.5079238e-05
1.0103614e-08
3.8530228e-07
3.4766689e-05
9.8482512e-09
3.667988e-07
3.4469668e-05
9.8351223e-09
3.5004232e-07
3.4186716e-05
1.0022915e-08
3.3480554e-07
3.3916567e-05
1.0377015e-08
3.2089286e-07
3.3658116e-05
1.086807e-08
3.0813659e-07
3.3410395e-05
1.1470992e-08
2.9639283e-07
3.3172556e-05
1.2164283e-08
2.8553829e-07
3.2943853e-05
1.2929298e-08
2.7546718e-07
3.2723625e-05
1.3750159e-08
2.6608891e-07
3.2511286e-05
1.4613073e-08
2.5732574e-07
3.2306316e-05
1.5506246e-08
2.4911065e-07
3.2108246e-05
1.6419613e-08
2.4138623e-07
3.1916658e-05
1.734462e-08
2.341027e-07
3.1731171e-05
1.8274358e-08
2.2721713e-07
3.1551444e-05
1.9203165e-08
2.2069215e-07
3.1377162e-05
2.0127735e-08
2.144951e-07
3.1208038e-05
2.1048656e-08
2.0859681e-07
3.10438e-05
2.1972794e-08
2.0297056e-07
3.0884232e-05
2.282786e-08
1.9760736e-07
3.0729103e-05
2.3662959e-08
1.9248226e-07
3.05782e-05
2.4490008e-08
1.8757381e-07
3.0431331e-05
2.5296291e-08
1.8286762e-07
3.0288318e-05
2.6077957e-08
1.7835077e-07
3.0148994e-05
2.6834292e-08
1.7401108e-07
3.0013202e-05
2.7564665e-08
1.6983755e-07
2.9880797e-05
2.8268958e-08
1.6582024e-07
2.975164e-05
2.8947401e-08
1.6195013e-07
2.9625601e-05
2.9600762e-08
1.5821894e-07
2.9502557e-05
3.0228558e-08
1.5461917e-07
2.9382396e-05
3.0823599e-08
1.5114464e-07
2.9265007e-05
3.1393115e-08
1.4778874e-07
2.9150287e-05
3.1939598e-08
1.4454533e-07
2.9038137e-05
3.2461885e-08
1.4140898e-07
2.8928465e-05
3.2960046e-08
1.3837459e-07
2.8821181e-05
3.3434707e-08
1.3543752e-07
2.8716203e-05
3.388636e-08
1.3259329e-07
2.8613449e-05
3.4315584e-08
1.2983788e-07
2.8512845e-05
3.4722904e-08
1.2716735e-07
2.8414317e-05
3.5108986e-08
1.2457815e-07
2.8317797e-05
3.5474452e-08
1.2206682e-07
2.8223219e-05
3.581986e-08
1.1963009e-07
2.813052e-05
3.6145886e-08
1.1726491e-07
2.803964e-05
3.645303e-08
1.149684e-07
2.7950522e-05
3.6741877e-08
1.1273775e-07
2.7863111e-05
3.7012842e-08
1.1057028e-07
2.7777355e-05
3.7266242e-08
1.0846344e-07
2.7693204e-05
3.7502458e-08
1.0641477e-07
2.7610611e-05
3.7721601e-08
1.0442172e-07
2.752953e-05
3.7923576e-08
1.0248202e-07
2.744992e-05
3.8108018e-08
1.0059307e-07
2.7371738e-05
3.8274289e-08
9.8752307e-08
2.7294949e-05
3.8421554e-08
9.6956911e-08
2.7219516e-05
3.8548721e-08
9.5203633e-08
2.714541e-05
3.8655123e-08
9.3488623e-08
2.7072603e-05
3.8741167e-08
9.1806945e-08
2.7001079e-05
3.881027e-08
9.0152346e-08
2.6930832e-05
3.8872143e-08
8.8516577e-08
2.6861877e-05
3.8947427e-08
8.6890525e-08
2.679426e-05
3.9073519e-08
8.5269172e-08
2.6728065e-05
3.9306968e-08
8.3675943e-08
2.6663337e-05
3.9708339e-08
8.2271175e-08
2.659956e-05
4.0271968e-08
8.1836178e-08
2.6534295e-05
4.0698005e-08
8.4555732e-08
3.9620847e-08
1.1507129e-07
0.00010494757
5.6811082e-07
6.5033076e-06
9.8925416e-05
1.0462983e-06
6.6283516e-06
9.3480449e-05
1.3439845e-06
6.1835065e-06
8.8341777e-05
1.4751324e-06
5.9184762e-06
8.3502084e-05
1.4993911e-06
5.6187065e-06
7.9004057e-05
1.4572411e-06
5.2482679e-06
7.4853978e-05
1.3667382e-06
4.8478757e-06
7.1037378e-05
1.2423973e-06
4.4464569e-06
6.7536062e-05
1.0997693e-06
4.0563127e-06
6.4331998e-05
9.519236e-07
3.683491e-06
6.1407318e-05
8.0805756e-07
3.3320524e-06
5.8744339e-05
6.7422203e-07
3.0046209e-06
5.6325632e-05
5.5404398e-07
2.7024907e-06
5.4133973e-05
4.4916746e-07
2.4259383e-06
5.2152298e-05
3.5972398e-07
2.174536e-06
5.0363747e-05
2.8484511e-07
1.9473718e-06
4.875178e-05
2.2310003e-07
1.7432015e-06
4.7300339e-05
1.7281165e-07
1.5605647e-06
4.5994012e-05
1.3226571e-07
1.3978748e-06
4.4818177e-05
9.9840008e-08
1.2534891e-06
4.3759121e-05
7.4075611e-08
1.1257614e-06
4.2804123e-05
5.3707625e-08
1.0130814e-06
4.1941503e-05
3.7671207e-08
9.1390375e-07
4.1160627e-05
2.5096457e-08
8.2676734e-07
4.0451891e-05
1.529416e-08
7.5030387e-07
3.980679e-05
7.528166e-09
6.8329173e-07
3.9217543e-05
1.6727418e-09
6.2455202e-07
3.8677513e-05
-3.0330861e-09
5.7313082e-07
3.8180739e-05
-6.6486971e-09
5.2807354e-07
3.7722004e-05
-9.3595073e-09
4.8853452e-07
3.7296777e-05
-1.1371783e-08
4.5378929e-07
3.6901112e-05
-1.2818217e-08
4.2319913e-07
3.6531588e-05
-1.3805295e-08
3.9620479e-07
3.6185236e-05
-1.4417465e-08
3.7231878e-07
3.5859491e-05
-1.4721912e-08
3.5111776e-07
3.5552132e-05
-1.4772626e-08
3.3223577e-07
3.5261237e-05
-1.4613909e-08
3.1535729e-07
3.4985143e-05
-1.4282201e-08
3.0021088e-07
3.472241e-05
-1.38077e-08
2.8656374e-07
3.4471787e-05
-1.3215899e-08
2.7421629e-07
3.4232185e-05
-1.2528171e-08
2.6299768e-07
3.4002657e-05
-1.1762797e-08
2.5276173e-07
3.3782373e-05
-1.0935248e-08
2.4338335e-07
3.3570606e-05
-1.0058744e-08
2.3475558e-07
3.3366714e-05
-9.1447481e-09
2.2678674e-07
3.3170132e-05
-8.2028231e-09
2.1939834e-07
3.2980356e-05
-7.2412428e-09
2.1252298e-07
3.279694e-05
-6.2668907e-09
2.0610281e-07
3.2619482e-05
-5.2855542e-09
2.0008784e-07
3.2447623e-05
-4.3018276e-09
1.944348e-07
3.228104e-05
-3.3190637e-09
1.8910588e-07
3.2119438e-05
-2.3382859e-09
1.8406736e-07
3.1962554e-05
-1.3530473e-09
1.7928647e-07
3.1810075e-05
-2.7631903e-10
1.7472767e-07
3.1661878e-05
5.8583515e-10
1.7043905e-07
3.1517732e-05
1.4356124e-09
1.6637294e-07
3.1377429e-05
2.3038151e-09
1.6248956e-07
3.1240792e-05
3.1586207e-09
1.5877486e-07
3.1107656e-05
3.9969864e-09
1.552172e-07
3.0977867e-05
4.8171812e-09
1.5180548e-07
3.0851284e-05
5.6179875e-09
1.4852968e-07
3.0727774e-05
6.3990493e-09
1.4538075e-07
3.060721e-05
7.1609153e-09
1.4235053e-07
3.0489473e-05
7.9059186e-09
1.3943119e-07
3.037445e-05
8.6357595e-09
1.3661576e-07
3.0262049e-05
9.320648e-09
1.3390396e-07
3.0152163e-05
9.9938077e-09
1.3128564e-07
3.0044697e-05
1.0650391e-08
1.287551e-07
2.9939564e-05
1.1286746e-08
1.2630825e-07
2.983668e-05
1.1903211e-08
1.2394086e-07
2.9735965e-05
1.2500169e-08
1.2164885e-07
2.9637345e-05
1.3077898e-08
1.1942842e-07
2.9540748e-05
1.3636728e-08
1.1727617e-07
2.9446105e-05
1.4177025e-08
1.1518882e-07
2.9353352e-05
1.4699157e-08
1.1316338e-07
2.9262425e-05
1.5203542e-08
1.1119701e-07
2.9173268e-05
1.5690474e-08
1.0928708e-07
2.9085822e-05
1.6160355e-08
1.0743107e-07
2.9000035e-05
1.6613556e-08
1.0562665e-07
2.8915855e-05
1.7050404e-08
1.0387155e-07
2.8833233e-05
1.7471128e-08
1.0216362e-07
2.8752123e-05
1.7875954e-08
1.0050082e-07
2.8672479e-05
1.826509e-08
9.8881104e-08
2.8594259e-05
1.8638568e-08
9.7302492e-08
2.8517424e-05
1.8996227e-08
9.5762948e-08
2.8441934e-05
1.9337804e-08
9.426033e-08
2.8367753e-05
1.96628e-08
9.2792348e-08
2.8294848e-05
1.9970484e-08
9.1356282e-08
2.8223187e-05
2.0260003e-08
8.99489e-08
2.8152746e-05
2.0530695e-08
8.8565925e-08
2.8083503e-05
2.0782599e-08
8.72018e-08
2.8015447e-05
2.1017528e-08
8.5848667e-08
2.7948582e-05
2.124074e-08
8.4495839e-08
2.7882937e-05
2.1462723e-08
8.3129497e-08
2.7818574e-05
2.1699974e-08
8.1736525e-08
2.7755588e-05
2.1969249e-08
8.0324359e-08
2.7694014e-05
2.2266168e-08
7.9016082e-08
2.7633299e-05
2.2506278e-08
7.8480676e-08
2.7571004e-05
2.2393381e-08
8.0599443e-08
2.0993084e-08
1.0779944e-07
0.00010489986
2.7443377e-07
6.5049155e-06
9.8802772e-05
5.0716633e-07
6.6362236e-06
9.329591e-05
6.5854978e-07
6.1922972e-06
8.8116302e-05
7.2902546e-07
5.9257148e-06
8.3248198e-05