/*--------------------------------*- C++ -*----------------------------------*\
  =========                 |
  \\      /  F ield         | OpenFOAM: The Open Source CFD Toolbox
   \\    /   O peration     | Website:  https://openfoam.org
    \\  /    A nd           | Version:  7
     \\/     M anipulation  |
\*---------------------------------------------------------------------------*/
FoamFile
{
    version     2.0;
    format      ascii;
    class       volVectorField;
    location    "1750/water";
    object      U;
}
// * * * * * * * * * * * * * * * * * * * * * * * * * * * * * * * * * * * * * //

dimensions      [0 1 -1 0 0 0 0];

internalField   nonuniform List<vector> 
54000
(
(0.0090020934 0.00020305973 0.00020444027)
(0.0083186447 0.00023622738 0.00023904411)
(0.0073695241 0.00021363852 0.00021763527)
(0.0063566114 0.00018488016 0.00018965819)
(0.0054486673 0.00015530835 0.00016048633)
(0.0046741594 0.00012529952 0.00013052937)
(0.0040193038 9.7052612e-05 0.00010203017)
(0.0034740067 7.2578999e-05 7.7073288e-05)
(0.0030302461 5.2876127e-05 5.6738329e-05)
(0.0026757323 3.8068151e-05 4.1216512e-05)
(0.0023947254 2.7637704e-05 3.0037141e-05)
(0.0021713898 2.0689033e-05 2.2336508e-05)
(0.0019919695 1.6236161e-05 1.7152703e-05)
(0.0018455015 1.3416235e-05 1.3643172e-05)
(0.0017237326 1.1582488e-05 1.1179121e-05)
(0.0016206928 1.0304891e-05 9.3455807e-06)
(0.0015321593 9.3257915e-06 7.8957157e-06)
(0.0014551546 8.5052959e-06 6.6953101e-06)
(0.0013875459 7.774633e-06 5.676058e-06)
(0.0013277612 7.1034283e-06 4.8034858e-06)
(0.001274601 6.4798497e-06 4.0581563e-06)
(0.0012271179 5.8999453e-06 3.4261576e-06)
(0.0011845424 5.36253e-06 2.8950711e-06)
(0.001146235 4.8670215e-06 2.4526305e-06)
(0.0011116558 4.4126004e-06 2.0869763e-06)
(0.0010803434 3.9980134e-06 1.7867452e-06)
(0.0010519002 3.62146e-06 1.5416129e-06)
(0.0010259819 3.2805936e-06 1.3421856e-06)
(0.001002289 2.9733958e-06 1.1797304e-06)
(0.00098056199 2.6979497e-06 1.0463184e-06)
(0.00096057572 2.4519214e-06 9.3658917e-07)
(0.00094213242 2.2325665e-06 8.4693417e-07)
(0.00092505792 2.0373859e-06 7.7316637e-07)
(0.00090920047 1.8640893e-06 7.11843e-07)
(0.00089442818 1.7104626e-06 6.6046839e-07)
(0.0008806259 1.5743826e-06 6.170739e-07)
(0.00086769295 1.4538611e-06 5.8005299e-07)
(0.00085554128 1.3470716e-06 5.4811473e-07)
(0.00084409387 1.2523497e-06 5.2023942e-07)
(0.00083328322 1.1681994e-06 4.956277e-07)
(0.00082305015 1.0932616e-06 4.7365319e-07)
(0.00081334267 1.0262286e-06 4.5378233e-07)
(0.00080411486 9.6585991e-07 4.3554466e-07)
(0.00079532615 9.1131158e-07 4.1864972e-07)
(0.0007869407 8.6191704e-07 4.0290664e-07)
(0.00077892675 8.1708305e-07 3.8816788e-07)
(0.00077125603 7.7627672e-07 3.7432177e-07)
(0.0007639033 7.3902569e-07 3.6127648e-07)
(0.00075684598 7.0491526e-07 3.4896418e-07)
(0.00075006373 6.7357492e-07 3.3733092e-07)
(0.00074353822 6.4469398e-07 3.2633603e-07)
(0.00073725294 6.180253e-07 3.1581777e-07)
(0.00073119314 5.9334772e-07 3.057435e-07)
(0.00072534528 5.704185e-07 2.96211e-07)
(0.00071969687 5.4902423e-07 2.8716627e-07)
(0.00071423653 5.2901494e-07 2.7854331e-07)
(0.00070895386 5.10273e-07 2.7031184e-07)
(0.00070383929 4.9268772e-07 2.6244792e-07)
(0.00069888397 4.7614509e-07 2.5493185e-07)
(0.00069407976 4.6054964e-07 2.4774304e-07)
(0.00068941911 4.4582054e-07 2.4086437e-07)
(0.00068489502 4.3188513e-07 2.3427579e-07)
(0.00068050098 4.1867896e-07 2.2796418e-07)
(0.00067623091 4.0614597e-07 2.2191167e-07)
(0.00067207915 3.9423474e-07 2.1610558e-07)
(0.00066804042 3.8289668e-07 2.1053043e-07)
(0.00066410976 3.7209384e-07 2.0517787e-07)
(0.00066028251 3.6179376e-07 2.0003182e-07)
(0.0006565543 3.5196274e-07 1.9508276e-07)
(0.00065292099 3.4256949e-07 1.9031773e-07)
(0.00064937872 3.3358635e-07 1.8572842e-07)
(0.00064592384 3.2498786e-07 1.8130556e-07)
(0.00064255288 3.1675157e-07 1.7704117e-07)
(0.00063926261 3.0885693e-07 1.7292522e-07)
(0.00063604992 3.0128221e-07 1.6895058e-07)
(0.00063291192 2.9401329e-07 1.6511082e-07)
(0.00062984583 2.870311e-07 1.613976e-07)
(0.00062684904 2.803214e-07 1.5780332e-07)
(0.00062391907 2.7387063e-07 1.5432132e-07)
(0.00062105358 2.6766573e-07 1.5094272e-07)
(0.00061825035 2.6169439e-07 1.4766146e-07)
(0.00061550727 2.5594456e-07 1.4446984e-07)
(0.00061282235 2.5040679e-07 1.4136023e-07)
(0.00061019373 2.450688e-07 1.3832473e-07)
(0.00060761965 2.3991981e-07 1.3535641e-07)
(0.00060509846 2.3494609e-07 1.3244969e-07)
(0.00060262863 2.3013544e-07 1.295985e-07)
(0.00060020873 2.2547131e-07 1.2680494e-07)
(0.00059783744 2.2093209e-07 1.2407559e-07)
(0.00059551348 2.1649925e-07 1.2143379e-07)
(0.00059323555 2.1214965e-07 1.189293e-07)
(0.00059100214 2.0787218e-07 1.1666189e-07)
(0.00058881114 2.0369057e-07 1.1483008e-07)
(0.00058665898 1.9973142e-07 1.1382046e-07)
(0.0005845387 1.963843e-07 1.1441121e-07)
(0.00058243502 1.9487218e-07 1.1837364e-07)
(0.00058031396 1.997734e-07 1.3094407e-07)
(0.0005781161 2.2258425e-07 1.6397685e-07)
(0.00057566369 1.9706958e-07 1.5080568e-07)
(0.00056906201 7.8896367e-07 7.5322589e-07)
(0.0095316863 0.0003313754 0.00022336697)
(0.0092716504 0.00041105942 0.00027052342)
(0.0087756651 0.00040317187 0.00026060063)
(0.0081527518 0.00038218754 0.00024252081)
(0.0075302151 0.00035309574 0.00022101124)
(0.0069425889 0.00031541063 0.00019648834)
(0.006391209 0.00027309198 0.00017102969)
(0.0058791845 0.00023030694 0.00014652546)
(0.0054120202 0.00019001855 0.00012410997)
(0.0049926512 0.00015423459 0.00010436627)
(0.004620592 0.00012408347 8.7479018e-05)
(0.0042931332 9.9809401e-05 7.3327496e-05)
(0.0040063965 8.0956423e-05 6.1601504e-05)
(0.0037559538 6.6672209e-05 5.1918794e-05)
(0.0035372541 5.5985799e-05 4.3907445e-05)
(0.003345947 4.7992056e-05 3.7246645e-05)
(0.0031780884 4.194171e-05 3.1677529e-05)
(0.0030302311 3.7262445e-05 2.699792e-05)
(0.0028994324 3.3540995e-05 2.3051138e-05)
(0.0027832152 3.0490243e-05 1.9714593e-05)
(0.0026795075 2.7915735e-05 1.6890543e-05)
(0.0025865783 2.5687841e-05 1.4499382e-05)
(0.002502978 2.3720892e-05 1.2475016e-05)
(0.0024274871 2.1958431e-05 1.0761726e-05)
(0.0023590736 2.0362994e-05 9.3122331e-06)
(0.0022968589 1.8909455e-05 8.086129e-06)
(0.0022400906 1.7580769e-05 7.0489618e-06)
(0.0021881216 1.6364898e-05 6.171498e-06)
(0.0021403932 1.5251963e-05 5.4283132e-06)
(0.0020964214 1.4233849e-05 4.7973508e-06)
(0.0020557868 1.330304e-05 4.2604814e-06)
(0.0020181236 1.2451985e-05 3.802703e-06)
(0.0019831119 1.1673908e-05 3.410961e-06)
(0.0019504718 1.0962755e-05 3.0744212e-06)
(0.0019199589 1.0312855e-05 2.7842606e-06)
(0.0018913593 9.718834e-06 2.5331799e-06)
(0.0018644851 9.1756445e-06 2.3150738e-06)
(0.0018391716 8.6785732e-06 2.1248316e-06)
(0.0018152735 8.2232427e-06 1.9581843e-06)
(0.0017926629 7.8056217e-06 1.8115674e-06)
(0.0017712268 7.4219978e-06 1.6820118e-06)
(0.001750865 7.0689364e-06 1.5670703e-06)
(0.0017314886 6.7432694e-06 1.4647433e-06)
(0.0017130186 6.4422732e-06 1.3732751e-06)
(0.0016953848 6.1635568e-06 1.2911582e-06)
(0.0016785241 5.9049775e-06 1.2171193e-06)
(0.00166238 5.6646096e-06 1.1500839e-06)
(0.0016469019 5.4407249e-06 1.0891486e-06)
(0.001632044 5.2317782e-06 1.0335533e-06)
(0.0016177649 5.0363836e-06 9.826534e-07)
(0.0016040271 4.8533218e-06 9.3589458e-07)
(0.0015907965 4.6815622e-06 8.9273742e-07)
(0.0015780424 4.5201573e-06 8.5278709e-07)
(0.0015657364 4.3681526e-06 8.1576888e-07)
(0.0015538526 4.2246816e-06 7.8138465e-07)
(0.0015423672 4.089061e-06 7.4934536e-07)
(0.0015312583 3.9607289e-06 7.1941285e-07)
(0.0015205058 3.8391532e-06 6.9138753e-07)
(0.0015100909 3.7238124e-06 6.6509374e-07)
(0.0014999963 3.6142438e-06 6.403793e-07)
(0.0014902061 3.5100307e-06 6.1710925e-07)
(0.0014807053 3.4107985e-06 5.9516007e-07)
(0.00147148 3.3162117e-06 5.7442716e-07)
(0.0014625175 3.225958e-06 5.5481417e-07)
(0.0014538055 3.1397549e-06 5.3623515e-07)
(0.0014453328 3.0573337e-06 5.1861216e-07)
(0.0014370889 2.9784688e-06 5.0187849e-07)
(0.0014290637 2.9029572e-06 4.8596779e-07)
(0.001421248 2.8306023e-06 4.7082371e-07)
(0.001413633 2.761218e-06 4.5639215e-07)
(0.0014062104 2.6946332e-06 4.4262837e-07)
(0.0013989723 2.6306903e-06 4.2948604e-07)
(0.0013919116 2.5692448e-06 4.1692949e-07)
(0.0013850212 2.5101635e-06 4.0492104e-07)
(0.0013782945 2.4533179e-06 3.9342412e-07)
(0.0013717253 2.3985957e-06 3.8241132e-07)
(0.0013653078 2.3458847e-06 3.7185176e-07)
(0.0013590364 2.2950856e-06 3.6171731e-07)
(0.0013529058 2.2461049e-06 3.5198357e-07)
(0.001346911 2.1988506e-06 3.4262657e-07)
(0.0013410472 2.1532409e-06 3.3362111e-07)
(0.0013353099 2.1091955e-06 3.2494525e-07)
(0.001329695 2.066636e-06 3.165786e-07)
(0.0013241983 2.0254881e-06 3.0850066e-07)
(0.001318816 1.9856739e-06 3.0069036e-07)
(0.0013135446 1.9471134e-06 2.9313042e-07)
(0.0013083808 1.9097264e-06 2.8580531e-07)
(0.0013033213 1.8734254e-06 2.7870189e-07)
(0.0012983632 1.838116e-06 2.7181728e-07)
(0.0012935038 1.8037156e-06 2.6515478e-07)
(0.0012887402 1.7701698e-06 2.5874258e-07)
(0.0012840698 1.7375342e-06 2.5265034e-07)
(0.0012794889 1.7061211e-06 2.4701386e-07)
(0.0012749925 1.6769095e-06 2.421138e-07)
(0.001270572 1.6524673e-06 2.3851825e-07)
(0.0012662098 1.6393321e-06 2.3765984e-07)
(0.0012618709 1.6545744e-06 2.4458278e-07)
(0.0012574959 1.7463713e-06 2.7712494e-07)
(0.0012529717 2.0376715e-06 2.652645e-07)
(0.0012433358 2.951481e-06 1.3525321e-06)
(0.0095221617 0.00021179965 0.00022180581)
(0.009269783 0.00029872516 0.00026628967)
(0.0088657772 0.00031669844 0.00025526743)
(0.0083755729 0.000317438 0.00023864265)
(0.0078888426 0.00030841043 0.00021987851)
(0.0074276349 0.00028848207 0.00019850457)
(0.006988258 0.00026048391 0.00017617916)
(0.0065698164 0.00022855168 0.00015444521)
(0.0061756011 0.00019596771 0.00013413534)
(0.0058087146 0.00016504408 0.00011567593)
(0.0054706295 0.00013728621 9.9270839e-05)
(0.0051615551 0.00011345265 8.4947831e-05)
(0.0048808654 9.3684506e-05 7.2600737e-05)
(0.0046272998 7.7712987e-05 6.20449e-05)
(0.0043991196 6.5057025e-05 5.3064543e-05)
(0.0041942886 5.5163887e-05 4.544363e-05)
(0.0040106431 4.7493346e-05 3.8982754e-05)
(0.0038460219 4.1561376e-05 3.3506381e-05)
(0.0036983537 3.6958192e-05 2.8864074e-05)
(0.0035657105 3.3351174e-05 2.4928487e-05)
(0.0034463343 3.0479503e-05 2.1592135e-05)
(0.003338646 2.8144768e-05 1.8764099e-05)
(0.003241243 2.6200154e-05 1.6367138e-05)
(0.0031528887 2.4539752e-05 1.4335368e-05)
(0.0030724986 2.3088867e-05 1.261249e-05)
(0.0029991252 2.1796113e-05 1.1150135e-05)
(0.0029319421 2.0626905e-05 9.9064817e-06)
(0.0028702292 1.9558163e-05 8.8458165e-06)
(0.0028133589 1.8574037e-05 7.9385378e-06)
(0.0027607855 1.7663621e-05 7.1598239e-06)
(0.0027120345 1.6818832e-05 6.4890359e-06)
(0.0026666927 1.6033066e-05 5.9090204e-06)
(0.0026243991 1.5301095e-05 5.4052728e-06)
(0.0025848383 1.461882e-05 4.9656536e-06)
(0.0025477347 1.3982714e-05 4.5801144e-06)
(0.0025128472 1.3389543e-05 4.2403268e-06)
(0.002479964 1.2836282e-05 3.9393559e-06)
(0.0024488994 1.2320059e-05 3.6714249e-06)
(0.0024194896 1.1838145e-05 3.431727e-06)
(0.00239159 1.138794e-05 3.2162517e-06)
(0.0023650729 1.0966986e-05 3.0216607e-06)
(0.0023398248 1.0573e-05 2.8451737e-06)
(0.0023157449 1.0203875e-05 2.6844739e-06)
(0.0022927433 9.8575804e-06 2.5375947e-06)
(0.0022707398 9.5322146e-06 2.402864e-06)
(0.002249662 9.2260282e-06 2.2788663e-06)
(0.0022294453 8.9374195e-06 2.1643998e-06)
(0.0022100312 8.664929e-06 2.0584375e-06)
(0.0021913666 8.4072376e-06 1.9601003e-06)
(0.0021734038 8.1631534e-06 1.8686313e-06)
(0.0021560989 7.9316206e-06 1.7833673e-06)
(0.0021394122 7.7117238e-06 1.7037077e-06)
(0.0021233074 7.5026018e-06 1.6291512e-06)
(0.0021077512 7.3033781e-06 1.5592826e-06)
(0.0020927129 7.1131871e-06 1.4937197e-06)
(0.0020781645 6.9314165e-06 1.4321043e-06)
(0.0020640799 6.7576062e-06 1.3741142e-06)
(0.0020504351 6.591262e-06 1.3194618e-06)
(0.0020372075 6.4318791e-06 1.2678948e-06)
(0.0020243766 6.279007e-06 1.2191875e-06)
(0.0020119231 6.1322427e-06 1.1731319e-06)
(0.001999829 5.9912206e-06 1.1295439e-06)
(0.0019880776 5.8556115e-06 1.0882501e-06)
(0.0019766531 5.7251041e-06 1.0490964e-06)
(0.0019655411 5.5994082e-06 1.0119387e-06)
(0.0019547276 5.4782452e-06 9.7664569e-07)
(0.0019441999 5.3613894e-06 9.4310046e-07)
(0.0019339458 5.2486466e-06 9.1119008e-07)
(0.0019239539 5.1398179e-06 8.8080736e-07)
(0.0019142135 5.0347021e-06 8.5185967e-07)
(0.0019047144 4.9331176e-06 8.2425891e-07)
(0.001895447 4.8348998e-06 7.9792474e-07)
(0.0018864023 4.7398906e-06 7.7278079e-07)
(0.0018775718 4.6479438e-06 7.4875585e-07)
(0.0018689473 4.5589233e-06 7.257883e-07)
(0.0018605211 4.4727007e-06 7.0381403e-07)
(0.0018522861 4.3891532e-06 6.8277764e-07)
(0.0018442353 4.308168e-06 6.6262601e-07)
(0.0018363621 4.2296386e-06 6.4330765e-07)
(0.0018286604 4.1534574e-06 6.2477684e-07)
(0.0018211241 4.0795269e-06 6.0698881e-07)
(0.0018137478 4.0077534e-06 5.8990052e-07)
(0.0018065261 3.9380348e-06 5.7347217e-07)
(0.001799454 3.8702792e-06 5.5766788e-07)
(0.0017925266 3.8043817e-06 5.4244786e-07)
(0.0017857396 3.7402369e-06 5.2777903e-07)
(0.0017790885 3.6777258e-06 5.1362869e-07)
(0.0017725695 3.6167256e-06 4.9996922e-07)
(0.0017661787 3.5571076e-06 4.8677547e-07)
(0.0017599128 3.4987618e-06 4.7402537e-07)
(0.0017537682 3.4416528e-06 4.6171032e-07)
(0.0017477416 3.3859643e-06 4.4983554e-07)
(0.0017418294 3.3323813e-06 4.3844308e-07)
(0.0017360272 3.2827914e-06 4.2764705e-07)
(0.0017303281 3.2417772e-06 4.1776805e-07)
(0.0017247202 3.2200406e-06 4.099914e-07)
(0.001719183 3.2421547e-06 4.0984906e-07)
(0.001713691 3.3643444e-06 4.4114425e-07)
(0.0017081999 3.7072188e-06 4.7353374e-07)
(0.0016974804 4.4611195e-06 1.863499e-06)
(0.0095012861 0.00013951169 0.00022248511)
(0.0092133349 0.00022408325 0.00026709763)
(0.0088018509 0.00025700941 0.00025529581)
(0.0083306071 0.00026690691 0.0002382081)
(0.0078754299 0.00026502159 0.00021939836)
(0.0074527063 0.00025295651 0.00019823245)
(0.0070564396 0.00023295893 0.00017634609)
(0.0066827538 0.00020836345 0.0001552305)
(0.006331873 0.00018203354 0.00013558338)
(0.0060047052 0.00015603739 0.00011769036)
(0.0057015056 0.00013180401 0.00010166909)
(0.0054220192 0.00011020725 8.7524314e-05)
(0.0051656909 9.1631899e-05 7.5171986e-05)
(0.0049316845 7.6091185e-05 6.4472618e-05)
(0.0047188814 6.3363143e-05 5.526115e-05)
(0.0045259349 5.3104941e-05 4.7366821e-05)
(0.0043513547 4.4932757e-05 4.06249e-05)
(0.0041935865 3.847136e-05 3.4883031e-05)
(0.0040510752 3.3381245e-05 3.0003995e-05)
(0.0039223115 2.9370508e-05 2.5866181e-05)
(0.0038058643 2.6197262e-05 2.2362867e-05)
(0.0037004012 2.3666731e-05 1.9400963e-05)
(0.0036047 2.1625758e-05 1.6899611e-05)
(0.0035176529 1.9956327e-05 1.4788823e-05)
(0.0034382652 1.8569047e-05 1.3008104e-05)
(0.0033656513 1.7397362e-05 1.1504745e-05)
(0.0032990266 1.6392004e-05 1.0233524e-05)
(0.0032376995 1.5516242e-05 9.1565352e-06)
(0.0031810636 1.4743887e-05 8.242111e-06)
(0.0031285885 1.4056151e-05 7.4635762e-06)
(0.0030798115 1.3438893e-05 6.7985216e-06)
(0.0030343294 1.2881151e-05 6.2282227e-06)
(0.0029917905 1.2374495e-05 5.736983e-06)
(0.0029518882 1.1912421e-05 5.3116675e-06)
(0.0029143553 1.1489691e-05 4.9413539e-06)
(0.0028789586 1.1101928e-05 4.617001e-06)
(0.0028454946 1.074538e-05 4.3311217e-06)
(0.0028137847 1.0416774e-05 4.0775279e-06)
(0.0027836727 1.0113218e-05 3.8511077e-06)
(0.0027550209 9.8321212e-06 3.6476457e-06)
(0.0027277081 9.5711595e-06 3.4636647e-06)
(0.002701627 9.3282506e-06 3.2963009e-06)
(0.0026766823 9.1015162e-06 3.1431911e-06)
(0.0026527895 8.8892442e-06 3.0023823e-06)
(0.0026298729 8.6898907e-06 2.8722559e-06)
(0.0026078648 8.5020894e-06 2.7514712e-06)
(0.002586704 8.324619e-06 2.6389103e-06)
(0.0025663358 8.156396e-06 2.5336414e-06)
(0.0025467102 7.9964761e-06 2.4348842e-06)
(0.002527782 7.8440267e-06 2.3419788e-06)
(0.0025095101 7.6983362e-06 2.2543614e-06)
(0.0024918566 7.5588094e-06 2.1715444e-06)
(0.0024747871 7.4248972e-06 2.0931131e-06)
(0.0024582699 7.296019e-06 2.0187198e-06)
(0.0024422756 7.1714388e-06 1.9480687e-06)
(0.0024267775 7.0509278e-06 1.8808986e-06)
(0.0024117506 6.9343765e-06 1.8169519e-06)
(0.0023971715 6.8214899e-06 1.7560024e-06)
(0.0023830185 6.7119564e-06 1.6978519e-06)
(0.0023692714 6.6055388e-06 1.6423293e-06)
(0.0023559116 6.5020454e-06 1.5892713e-06)
(0.0023429214 6.4013085e-06 1.5385383e-06)
(0.0023302844 6.3031809e-06 1.4899935e-06)
(0.0023179851 6.207525e-06 1.4435151e-06)
(0.0023060089 6.1142038e-06 1.3989933e-06)
(0.0022943424 6.0230703e-06 1.3563245e-06)
(0.0022829727 5.9340586e-06 1.3154155e-06)
(0.0022718877 5.8471279e-06 1.2761706e-06)
(0.002261076 5.7622041e-06 1.238502e-06)
(0.0022505267 5.6791986e-06 1.2023304e-06)
(0.0022402296 5.5980409e-06 1.1675827e-06)
(0.0022301752 5.5186724e-06 1.1341881e-06)
(0.0022203542 5.4410316e-06 1.1020806e-06)
(0.002210758 5.3650625e-06 1.071199e-06)
(0.0022013784 5.2907178e-06 1.0414843e-06)
(0.0021922076 5.2179488e-06 1.012882e-06)
(0.0021832381 5.1467096e-06 9.853381e-07)
(0.0021744628 5.0769566e-06 9.5880413e-07)
(0.0021658752 5.0086493e-06 9.3323066e-07)
(0.0021574688 4.941744e-06 9.0857495e-07)
(0.0021492375 4.8761977e-06 8.8479114e-07)
(0.0021411756 4.8119667e-06 8.6183995e-07)
(0.0021332776 4.7489982e-06 8.3967859e-07)
(0.0021255383 4.6872392e-06 8.1827086e-07)
(0.0021179527 4.6266209e-06 7.975777e-07)
(0.0021105161 4.5670673e-06 7.775606e-07)
(0.0021032242 4.5084802e-06 7.581838e-07)
(0.0020960727 4.4507545e-06 7.394111e-07)
(0.0020890577 4.3937751e-06 7.2120352e-07)
(0.0020821756 4.3374558e-06 7.0352115e-07)
(0.002075423 4.2818113e-06 6.8632214e-07)
(0.0020687967 4.2271328e-06 6.6956097e-07)
(0.0020622937 4.1743541e-06 6.5320304e-07)
(0.002055911 4.1258152e-06 6.3726176e-07)
(0.0020496453 4.0868295e-06 6.2198503e-07)
(0.0020434926 4.0687776e-06 6.0874776e-07)
(0.0020374483 4.0948777e-06 6.0452224e-07)
(0.0020315149 4.2094253e-06 6.3987681e-07)
(0.0020256647 4.4797467e-06 7.1688443e-07)
(0.0020144539 4.9057764e-06 2.2695252e-06)
(0.0094902877 9.6726608e-05 0.00022289229)
(0.00917661 0.00016632333 0.00026788105)
(0.0087449456 0.00019969046 0.00025550648)
(0.0082664657 0.00021101604 0.00023762681)
(0.00781215 0.0002109939 0.0002181603)
(0.0073950862 0.0002028236 0.00019646328)
(0.0070087986 0.00018827265 0.00017418493)
(0.006648835 0.00016968865 0.0001528463)
(0.0063142174 0.00014929332 0.00013312182)
(0.0060045996 0.00012875288 0.0001152379)
(0.0057192201 0.00010923292 9.9256791e-05)
(0.0054570682 9.1490072e-05 8.514891e-05)
(0.0052170782 7.59234e-05 7.2816212e-05)
(0.0049981259 6.264333e-05 6.2119133e-05)
(0.0047989841 5.1561153e-05 5.2900048e-05)
(0.0046183234 4.2472278e-05 4.4997976e-05)
(0.0044547458 3.5118725e-05 3.8256896e-05)
(0.0043068267 2.9230543e-05 3.2530442e-05)
(0.0041731526 2.4550834e-05 2.7684339e-05)
(0.0040523509 2.0849111e-05 2.3597361e-05)
(0.0039431142 1.7926912e-05 2.0161345e-05)
(0.0038442168 1.56186e-05 1.7280682e-05)
(0.0037545253 1.3789365e-05 1.4871531e-05)
(0.0036730042 1.2331759e-05 1.2860861e-05)
(0.0035987172 1.1161537e-05 1.1185211e-05)
(0.0035308246 1.0213366e-05 9.7889735e-06)
(0.0034685786 9.4380828e-06 8.625071e-06)
(0.0034113173 8.7971287e-06 7.6543148e-06)
(0.0033584589 8.262721e-06 6.8439394e-06)
(0.0033094933 7.8140826e-06 6.1664554e-06)
(0.0032639753 7.4348238e-06 5.5988458e-06)
(0.0032215172 7.1121298e-06 5.1219266e-06)
(0.0031817817 6.8360962e-06 4.719728e-06)
(0.0031444758 6.5990208e-06 4.3789741e-06)
(0.0031093448 6.39478e-06 4.0886818e-06)
(0.0030761678 6.2184045e-06 3.8397982e-06)
(0.0030447526 6.0657956e-06 3.6248788e-06)
(0.003014932 5.933527e-06 3.4378177e-06)
(0.0029865602 5.8186963e-06 3.2736186e-06)
(0.0029595097 5.7188201e-06 3.1282054e-06)
(0.002933669 5.631749e-06 2.9982618e-06)
(0.0029089401 5.5556266e-06 2.8810966e-06)
(0.0028852364 5.4888232e-06 2.7745338e-06)
(0.0028624815 5.4299137e-06 2.6768099e-06)
(0.0028406075 5.3776429e-06 2.5865049e-06)
(0.0028195538 5.3309237e-06 2.5024715e-06)
(0.0027992664 5.2888106e-06 2.4237882e-06)
(0.0027796963 5.2504816e-06 2.3497107e-06)
(0.0027607998 5.2152419e-06 2.2796377e-06)
(0.002742537 5.1824978e-06 2.2130842e-06)
(0.0027248717 5.151765e-06 2.1496546e-06)
(0.0027077708 5.1226673e-06 2.0890228e-06)
(0.0026912041 5.0948944e-06 2.0309203e-06)
(0.0026751435 5.0680846e-06 1.9751376e-06)
(0.0026595636 5.0410643e-06 1.9215393e-06)
(0.0026444411 5.0142587e-06 1.8699669e-06)
(0.002629754 4.988017e-06 1.820251e-06)
(0.0026154815 4.9620728e-06 1.7722791e-06)
(0.0026016045 4.9361408e-06 1.7259606e-06)
(0.0025881054 4.9100856e-06 1.6812144e-06)
(0.0025749674 4.8838315e-06 1.6379664e-06)
(0.002562175 4.8573386e-06 1.5961463e-06)
(0.0025497136 4.8305807e-06 1.5556919e-06)
(0.0025375693 4.8035403e-06 1.5165475e-06)
(0.0025257292 4.7761768e-06 1.4786604e-06)
(0.002514181 4.7483847e-06 1.4419862e-06)
(0.0025029134 4.7202756e-06 1.4064839e-06)
(0.0024919154 4.6919148e-06 1.3721029e-06)
(0.0024811765 4.66329e-06 1.3387976e-06)
(0.002470687 4.6344018e-06 1.3065285e-06)
(0.0024604377 4.6052663e-06 1.27526e-06)
(0.0024504197 4.5759086e-06 1.2449536e-06)
(0.0024406247 4.5463465e-06 1.2155756e-06)
(0.0024310448 4.5166011e-06 1.1870934e-06)
(0.0024216723 4.4866957e-06 1.1594731e-06)
(0.0024125001 4.4566515e-06 1.132685e-06)
(0.0024035213 4.4264878e-06 1.1066973e-06)
(0.0023947295 4.3962281e-06 1.0814832e-06)
(0.0023861184 4.3658887e-06 1.0570127e-06)
(0.0023776821 4.3354867e-06 1.0332603e-06)
(0.0023694149 4.3050338e-06 1.0101971e-06)
(0.0023613115 4.2745369e-06 9.8779523e-07)
(0.0023533667 4.2439945e-06 9.660305e-07)
(0.0023455757 4.2133972e-06 9.4487327e-07)
(0.0023379338 4.1827211e-06 9.2429961e-07)
(0.0023304365 4.1519264e-06 9.0427584e-07)
(0.0023230798 4.1209532e-06 8.8477272e-07)
(0.0023158598 4.0897249e-06 8.6575317e-07)
(0.0023087726 4.0581568e-06 8.4717332e-07)
(0.002301815 4.0261923e-06 8.2898128e-07)
(0.0022949838 3.9938787e-06 8.1110646e-07)
(0.0022882766 3.9615303e-06 7.9346221e-07)
(0.002281691 3.9300792e-06 7.7594329e-07)
(0.0022752261 3.9016923e-06 7.5847787e-07)
(0.002268882 3.8809406e-06 7.4124637e-07)
(0.0022626608 3.8766485e-06 7.2572699e-07)
(0.0022565686 3.9043042e-06 7.1957979e-07)
(0.0022506189 3.9866533e-06 7.5579905e-07)
(0.0022447715 4.1390988e-06 8.4931789e-07)
(0.002233564 4.2832256e-06 2.4122119e-06)
(0.0094843561 6.6886586e-05 0.00022303624)
(0.0091549219 0.00011904886 0.00026838771)
(0.0087072816 0.00014772497 0.00025588053)
(0.0082191888 0.00015892952 0.00023765677)
(0.0077602858 0.00016026049 0.00021787142)
(0.0073412804 0.00015505102 0.00019586613)
(0.0069552494 0.00014481701 0.00017327438)
(0.0065978366 0.00013121474 0.00015165024)
(0.0062677954 0.00011592881 0.00013169211)
(0.0059642872 0.00010028521 0.0001136244)
(0.0056860598 8.5214432e-05 9.7497522e-05)
(0.0054316726 7.1330408e-05 8.3272195e-05)
(0.0051997008 5.8984298e-05 7.0844884e-05)
(0.0049887459 4.8311753e-05 6.0073373e-05)
(0.0047973943 3.9291582e-05 5.079889e-05)
(0.0046242055 3.1804353e-05 4.2859902e-05)
(0.0044677269 2.5679084e-05 3.6099808e-05)
(0.0043265179 2.0725785e-05 3.0371291e-05)
(0.0041991724 1.6756342e-05 2.5538702e-05)
(0.004084339 1.3596837e-05 2.1479083e-05)
(0.0039807371 1.1093753e-05 1.8082322e-05)
(0.0038871692 9.1161642e-06 1.525079e-05)
(0.0038025288 7.5553798e-06 1.2898647e-05)
(0.003725804 6.323133e-06 1.0950985e-05)
(0.0036560786 5.3488174e-06 9.3426779e-06)
(0.0035925304 4.575181e-06 8.0166137e-06)
(0.0035344253 3.9620996e-06 6.9239494e-06)
(0.0034811131 3.4726267e-06 6.0250731e-06)
(0.0034320221 3.08152e-06 5.286264e-06)
(0.0033866501 2.7702773e-06 4.6792111e-06)
(0.0033445586 2.5236737e-06 4.1805213e-06)
(0.0033053662 2.3295861e-06 3.7707527e-06)
(0.0032687419 2.1784978e-06 3.4337458e-06)
(0.0032343982 2.0629056e-06 3.1561117e-06)
(0.0032020863 1.9768085e-06 2.9267974e-06)
(0.0031715907 1.9153166e-06 2.7367036e-06)
(0.0031427248 1.8743787e-06 2.5783561e-06)
(0.0031153267 1.8506055e-06 2.4456285e-06)
(0.0030892563 1.8411247e-06 2.333523e-06)
(0.0030643915 1.8434988e-06 2.2379668e-06)
(0.003040626 1.8556442e-06 2.1556631e-06)
(0.0030178671 1.8757806e-06 2.0839517e-06)
(0.0029960335 1.9023815e-06 2.0206949e-06)
(0.0029750538 1.9341336e-06 1.9641815e-06)
(0.0029548649 1.9699147e-06 1.9130515e-06)
(0.0029354109 2.0087616e-06 1.8662276e-06)
(0.0029166424 2.0498582e-06 1.8228517e-06)
(0.0028985148 2.0925097e-06 1.7822576e-06)
(0.0028809886 2.136137e-06 1.7439148e-06)
(0.0028640277 2.1802716e-06 1.7074101e-06)
(0.0028476 2.2245505e-06 1.6724143e-06)
(0.0028316758 2.2687603e-06 1.6386559e-06)
(0.0028162284 2.3128934e-06 1.6058721e-06)
(0.0028012324 2.3570797e-06 1.5738234e-06)
(0.0027866658 2.3978706e-06 1.5431883e-06)
(0.0027725089 2.4362347e-06 1.5136863e-06)
(0.0027587418 2.4734394e-06 1.4848886e-06)
(0.002745346 2.5095345e-06 1.4567012e-06)
(0.002732305 2.5443492e-06 1.4291164e-06)
(0.0027196032 2.5777722e-06 1.4021116e-06)
(0.0027072261 2.6097227e-06 1.3756641e-06)
(0.0026951602 2.6401652e-06 1.3497562e-06)
(0.0026833928 2.669087e-06 1.3243749e-06)
(0.0026719116 2.696505e-06 1.2995086e-06)
(0.0026607054 2.7223739e-06 1.2751518e-06)
(0.0026497635 2.746356e-06 1.2513127e-06)
(0.002639076 2.7689082e-06 1.2279771e-06)
(0.0026286333 2.7901475e-06 1.2051276e-06)
(0.0026184262 2.8099931e-06 1.1827608e-06)
(0.0026084461 2.8284309e-06 1.1608696e-06)
(0.0025986849 2.8454918e-06 1.1394499e-06)
(0.0025891348 2.8612178e-06 1.1184905e-06)
(0.0025797885 2.8756501e-06 1.097987e-06)
(0.002570639 2.8888311e-06 1.0779284e-06)
(0.0025616795 2.9008062e-06 1.0583089e-06)
(0.0025529038 2.9116202e-06 1.0391191e-06)
(0.0025443058 2.9213117e-06 1.020349e-06)
(0.0025358796 2.9299284e-06 1.0019893e-06)
(0.0025276198 2.9375045e-06 9.8403191e-07)
(0.002519521 2.9440792e-06 9.6646594e-07)
(0.0025115783 2.949682e-06 9.4927948e-07)
(0.0025037869 2.954338e-06 9.3246196e-07)
(0.0024961421 2.9580685e-06 9.1600107e-07)
(0.0024886396 2.960882e-06 8.9987923e-07)
(0.0024812752 2.9627742e-06 8.8408507e-07)
(0.002474045 2.9637231e-06 8.6859427e-07)
(0.0024669452 2.963688e-06 8.5338209e-07)
(0.0024599723 2.9626126e-06 8.384144e-07)
(0.0024531231 2.96043e-06 8.2364351e-07)
(0.0024463945 2.957097e-06 8.0900381e-07)
(0.0024397839 2.9526531e-06 7.9439843e-07)
(0.0024332895 2.9473509e-06 7.7969489e-07)
(0.0024269099 2.9419136e-06 7.6470967e-07)
(0.0024206457 2.9379225e-06 7.4925965e-07)
(0.0024144993 2.9384188e-06 7.3336456e-07)
(0.0024084767 2.9484963e-06 7.1826481e-07)
(0.0024025877 2.9751244e-06 7.1113355e-07)
(0.0023968461 3.0234588e-06 7.4331301e-07)
(0.0023911946 3.0808293e-06 8.3046654e-07)
(0.0023803644 3.0574261e-06 2.299943e-06)
(0.0094810492 4.4090136e-05 0.00022308885)
(0.0091422796 7.9975483e-05 0.00026874495)
(0.0086839084 0.00010160921 0.00025628771)
(0.0081880903 0.00011101591 0.00023793456)
(0.0077246858 0.00011275117 0.00021798622)
(0.0073029895 0.00010953687 0.00019578738)
(0.0069155191 0.00010266029 0.00017296032)
(0.0065579578 9.3267236e-05 0.0001510852)
(0.006229001 8.2539594e-05 0.00013089045)
(0.005927585 7.1446833e-05 0.00011261412)
(0.0056522063 6.067336e-05 9.6309239e-05)
(0.0054012005 5.0670808e-05 8.1936267e-05)
(0.0051729477 4.1706608e-05 6.9390831e-05)
(0.004965887 3.3898114e-05 5.8529097e-05)
(0.0047784814 2.7249953e-05 4.9189879e-05)
(0.0046092054 2.1693072e-05 4.1208773e-05)
(0.0044565535 1.7117435e-05 3.4426144e-05)
(0.0043190553 1.3395518e-05 2.8691658e-05)
(0.0041952917 1.039781e-05 2.3866804e-05)
(0.0040839086 8.0023302e-06 1.9826011e-05)
(0.0039836292 6.0997704e-06 1.645686e-05)
(0.0038932634 4.5956619e-06 1.3659716e-05)
(0.0038117126 3.4106723e-06 1.1347012e-05)
(0.0037379734 2.4799273e-06 9.4422924e-06)
(0.0036711359 1.7515101e-06 7.8790891e-06)
(0.0036103859 1.1749052e-06 6.6010324e-06)
(0.0035549935 7.2234066e-07 5.5561201e-06)
(0.0035043108 3.7342567e-07 4.7060696e-06)
(0.0034577717 1.0569592e-07 4.0163446e-06)
(0.0034148763 -9.9089284e-08 3.4574143e-06)
(0.0033751872 -2.5333548e-07 3.0054961e-06)
(0.0033383243 -3.6639887e-07 2.6409745e-06)
(0.0033039576 -4.4577855e-07 2.3475729e-06)
(0.0032718009 -4.9748298e-07 2.1118273e-06)
(0.0032416065 -5.2634707e-07 1.9226418e-06)
(0.0032131599 -5.3631042e-07 1.7709148e-06)
(0.0031862758 -5.3064025e-07 1.649203e-06)
(0.0031607936 -5.1206303e-07 1.5514406e-06)
(0.0031365743 -4.8287241e-07 1.4727099e-06)
(0.0031134976 -4.4500846e-07 1.4090323e-06)
(0.0030914586 -4.0011165e-07 1.3572047e-06)
(0.0030703663 -3.4957897e-07 1.3146566e-06)
(0.0030501409 -2.9459409e-07 1.2793304e-06)
(0.0030307129 -2.3616891e-07 1.2495919e-06)
(0.0030120207 -1.7516637e-07 1.2241408e-06)
(0.0029940105 -1.1232181e-07 1.2019534e-06)
(0.0029766343 -4.8268474e-08 1.1822233e-06)
(0.0029598495 1.6449707e-08 1.1643212e-06)
(0.0029436181 8.1354519e-08 1.1477522e-06)
(0.002927906 1.460254e-07 1.1321251e-06)
(0.0029126825 2.1005799e-07 1.1171191e-06)
(0.0028979201 2.7305023e-07 1.1024398e-06)
(0.0028835935 3.3454156e-07 1.0876606e-06)
(0.0028696773 3.9432481e-07 1.0722032e-06)
(0.0028561514 4.5705008e-07 1.0590087e-06)
(0.0028429997 5.2060012e-07 1.0472574e-06)
(0.0028302035 5.8225308e-07 1.0356069e-06)
(0.0028177449 6.4163815e-07 1.023801e-06)
(0.0028056084 6.9901861e-07 1.0118752e-06)
(0.0027937799 7.5456083e-07 9.9986932e-07)
(0.0027822461 8.0834994e-07 9.8781061e-07)
(0.0027709946 8.6046895e-07 9.757181e-07)
(0.0027600137 9.1102494e-07 9.6360227e-07)
(0.0027492926 9.6019445e-07 9.5144643e-07)
(0.0027388207 1.0080066e-06 9.392662e-07)
(0.0027285887 1.0528505e-06 9.2746496e-07)
(0.0027185878 1.0958664e-06 9.1582835e-07)
(0.0027088089 1.1375005e-06 9.0425248e-07)
(0.0026992438 1.1777672e-06 8.9275818e-07)
(0.0026898847 1.2166568e-06 8.8136544e-07)
(0.0026807244 1.25417e-06 8.700802e-07)
(0.0026717559 1.2903146e-06 8.5890658e-07)
(0.0026629726 1.3251089e-06 8.478525e-07)
(0.0026543682 1.3585745e-06 8.3692268e-07)
(0.0026459367 1.39074e-06 8.2612177e-07)
(0.0026376723 1.421636e-06 8.1545291e-07)
(0.0026295698 1.4512883e-06 8.0491977e-07)
(0.0026216238 1.47973e-06 7.9452244e-07)
(0.0026138294 1.5069888e-06 7.8426314e-07)
(0.002606182 1.5330934e-06 7.7414064e-07)
(0.0025986769 1.5580649e-06 7.64152e-07)
(0.0025913099 1.5819208e-06 7.5429546e-07)
(0.0025840769 1.6046805e-06 7.4456475e-07)
(0.0025769739 1.6263498e-06 7.3495266e-07)
(0.0025699972 1.6469221e-06 7.254479e-07)