/*--------------------------------*- C++ -*----------------------------------*\
  =========                 |
  \\      /  F ield         | OpenFOAM: The Open Source CFD Toolbox
   \\    /   O peration     | Website:  https://openfoam.org
    \\  /    A nd           | Version:  7
     \\/     M anipulation  |
\*---------------------------------------------------------------------------*/
FoamFile
{
    version     2.0;
    format      ascii;
    class       volVectorField;
    location    "3400/water";
    object      U;
}
// * * * * * * * * * * * * * * * * * * * * * * * * * * * * * * * * * * * * * //

dimensions      [0 1 -1 0 0 0 0];

internalField   nonuniform List<vector> 
54000
(
(0.0090020934 0.00020305973 0.00020444027)
(0.0083186447 0.00023622738 0.00023904411)
(0.0073695241 0.00021363852 0.00021763527)
(0.0063566114 0.00018488016 0.00018965819)
(0.0054486673 0.00015530835 0.00016048633)
(0.0046741594 0.00012529952 0.00013052937)
(0.0040193038 9.705261e-05 0.00010203017)
(0.0034740067 7.2578998e-05 7.7073288e-05)
(0.0030302461 5.2876126e-05 5.6738328e-05)
(0.0026757323 3.806815e-05 4.1216512e-05)
(0.0023947254 2.7637704e-05 3.0037141e-05)
(0.0021713898 2.0689034e-05 2.2336508e-05)
(0.0019919695 1.6236161e-05 1.7152704e-05)
(0.0018455015 1.3416236e-05 1.3643173e-05)
(0.0017237326 1.1582488e-05 1.1179122e-05)
(0.0016206928 1.0304891e-05 9.3455817e-06)
(0.0015321593 9.3257916e-06 7.8957162e-06)
(0.0014551546 8.5052967e-06 6.6953114e-06)
(0.0013875459 7.7746334e-06 5.6760579e-06)
(0.0013277612 7.1034281e-06 4.8034864e-06)
(0.001274601 6.4798499e-06 4.0581566e-06)
(0.0012271179 5.8999453e-06 3.4261576e-06)
(0.0011845424 5.3625307e-06 2.8950721e-06)
(0.001146235 4.8670208e-06 2.4526295e-06)
(0.0011116558 4.4125989e-06 2.086977e-06)
(0.0010803434 3.9980128e-06 1.786746e-06)
(0.0010519002 3.6214607e-06 1.5416126e-06)
(0.0010259819 3.2805938e-06 1.3421849e-06)
(0.001002289 2.9733955e-06 1.1797314e-06)
(0.00098056199 2.6979495e-06 1.0463203e-06)
(0.00096057571 2.4519212e-06 9.3659014e-07)
(0.00094213242 2.2325672e-06 8.4693429e-07)
(0.00092505792 2.0373866e-06 7.7316689e-07)
(0.00090920047 1.8640897e-06 7.1184264e-07)
(0.00089442818 1.7104629e-06 6.6046755e-07)
(0.0008806259 1.5743827e-06 6.1707335e-07)
(0.00086769295 1.4538615e-06 5.8005315e-07)
(0.00085554128 1.3470703e-06 5.4811585e-07)
(0.00084409387 1.2523493e-06 5.2023914e-07)
(0.00083328322 1.1681982e-06 4.9562719e-07)
(0.00082305015 1.0932617e-06 4.7365298e-07)
(0.00081334267 1.0262297e-06 4.5378255e-07)
(0.00080411486 9.658595e-07 4.3554508e-07)
(0.00079532615 9.113114e-07 4.1865067e-07)
(0.0007869407 8.6191697e-07 4.0290681e-07)
(0.00077892675 8.1708293e-07 3.8816802e-07)
(0.00077125603 7.7627648e-07 3.7432144e-07)
(0.0007639033 7.3902664e-07 3.6127558e-07)
(0.00075684598 7.0491452e-07 3.4896403e-07)
(0.00075006373 6.7357543e-07 3.3733219e-07)
(0.00074353822 6.4469395e-07 3.2633717e-07)
(0.00073725294 6.1802615e-07 3.1581832e-07)
(0.00073119314 5.9334796e-07 3.057435e-07)
(0.00072534528 5.7041996e-07 2.9621076e-07)
(0.00071969687 5.4902522e-07 2.8716682e-07)
(0.00071423652 5.2901555e-07 2.7854313e-07)
(0.00070895386 5.1027375e-07 2.7031113e-07)
(0.00070383928 4.9268711e-07 2.624487e-07)
(0.00069888397 4.7614473e-07 2.5493259e-07)
(0.00069407976 4.6054896e-07 2.4774342e-07)
(0.00068941911 4.4582092e-07 2.4086399e-07)
(0.00068489502 4.3188572e-07 2.3427663e-07)
(0.00068050098 4.1867994e-07 2.2796459e-07)
(0.00067623091 4.0614673e-07 2.2191191e-07)
(0.00067207915 3.9423575e-07 2.1610537e-07)
(0.00066804042 3.8289729e-07 2.105309e-07)
(0.00066410976 3.7209439e-07 2.0517735e-07)
(0.00066028251 3.6179308e-07 2.0003247e-07)
(0.00065655429 3.51963e-07 1.9508326e-07)
(0.00065292099 3.4256999e-07 1.9031766e-07)
(0.00064937872 3.3358719e-07 1.8572786e-07)
(0.00064592384 3.2498844e-07 1.8130519e-07)
(0.00064255288 3.167519e-07 1.770406e-07)
(0.00063926261 3.0885698e-07 1.7292447e-07)
(0.00063604992 3.0128296e-07 1.6895126e-07)
(0.00063291192 2.9401254e-07 1.6511085e-07)
(0.00062984583 2.8703121e-07 1.6139749e-07)
(0.00062684904 2.8032242e-07 1.5780312e-07)
(0.00062391907 2.738709e-07 1.5432036e-07)
(0.00062105358 2.6766617e-07 1.5094236e-07)
(0.00061825035 2.6169475e-07 1.4766106e-07)
(0.00061550727 2.5594537e-07 1.4446913e-07)
(0.00061282235 2.5040705e-07 1.4135961e-07)
(0.00061019373 2.4506855e-07 1.3832393e-07)
(0.00060761964 2.3991945e-07 1.3535625e-07)
(0.00060509846 2.349465e-07 1.3244867e-07)
(0.00060262863 2.3013449e-07 1.2959873e-07)
(0.00060020873 2.2546939e-07 1.2680471e-07)
(0.00059783744 2.2093171e-07 1.2407611e-07)
(0.00059551348 2.1649851e-07 1.2143351e-07)
(0.00059323555 2.1214841e-07 1.1892963e-07)
(0.00059100214 2.0787176e-07 1.1666242e-07)
(0.00058881114 2.0369027e-07 1.1483009e-07)
(0.00058665898 1.997307e-07 1.1382024e-07)
(0.0005845387 1.9638379e-07 1.1441117e-07)
(0.00058243501 1.9487265e-07 1.1837398e-07)
(0.00058031396 1.9977538e-07 1.3094376e-07)
(0.0005781161 2.2258474e-07 1.6397629e-07)
(0.00057566369 1.97069e-07 1.5080583e-07)
(0.00056906201 7.8896466e-07 7.5322568e-07)
(0.0095316863 0.0003313754 0.00022336697)
(0.0092716504 0.00041105942 0.00027052342)
(0.0087756651 0.00040317187 0.00026060063)
(0.0081527518 0.00038218754 0.00024252081)
(0.0075302151 0.00035309574 0.00022101125)
(0.0069425889 0.00031541062 0.00019648834)
(0.006391209 0.00027309198 0.00017102969)
(0.0058791845 0.00023030694 0.00014652546)
(0.0054120202 0.00019001855 0.00012410997)
(0.0049926512 0.00015423459 0.00010436627)
(0.004620592 0.00012408347 8.7479017e-05)
(0.0042931332 9.9809402e-05 7.3327495e-05)
(0.0040063965 8.0956424e-05 6.1601504e-05)
(0.0037559538 6.667221e-05 5.1918796e-05)
(0.0035372541 5.59858e-05 4.3907446e-05)
(0.003345947 4.7992055e-05 3.7246645e-05)
(0.0031780884 4.1941711e-05 3.167753e-05)
(0.0030302311 3.7262446e-05 2.6997922e-05)
(0.0028994324 3.3540996e-05 2.3051138e-05)
(0.0027832152 3.0490244e-05 1.9714593e-05)
(0.0026795075 2.7915736e-05 1.6890543e-05)
(0.0025865783 2.5687841e-05 1.4499381e-05)
(0.002502978 2.3720892e-05 1.2475015e-05)
(0.0024274871 2.195843e-05 1.0761725e-05)
(0.0023590736 2.0362993e-05 9.3122328e-06)
(0.0022968589 1.8909455e-05 8.0861293e-06)
(0.0022400906 1.7580769e-05 7.0489622e-06)
(0.0021881216 1.6364899e-05 6.171498e-06)
(0.0021403932 1.5251963e-05 5.4283141e-06)
(0.0020964214 1.4233849e-05 4.7973506e-06)
(0.0020557868 1.3303041e-05 4.2604827e-06)
(0.0020181236 1.2451986e-05 3.8027036e-06)
(0.0019831119 1.1673908e-05 3.4109611e-06)
(0.0019504718 1.0962755e-05 3.0744197e-06)
(0.0019199589 1.0312854e-05 2.7842597e-06)
(0.0018913593 9.7188348e-06 2.5331808e-06)
(0.0018644851 9.1756454e-06 2.3150729e-06)
(0.0018391716 8.6785721e-06 2.1248314e-06)
(0.0018152735 8.2232422e-06 1.9581845e-06)
(0.0017926629 7.80562e-06 1.8115678e-06)
(0.0017712268 7.4219979e-06 1.6820113e-06)
(0.001750865 7.0689379e-06 1.5670701e-06)
(0.0017314886 6.7432704e-06 1.4647434e-06)
(0.0017130186 6.442274e-06 1.3732747e-06)
(0.0016953848 6.1635573e-06 1.2911585e-06)
(0.0016785241 5.9049773e-06 1.2171195e-06)
(0.00166238 5.6646095e-06 1.1500842e-06)
(0.0016469019 5.4407263e-06 1.0891499e-06)
(0.001632044 5.2317776e-06 1.0335529e-06)
(0.0016177648 5.0363856e-06 9.8265463e-07)
(0.0016040271 4.853323e-06 9.3589516e-07)
(0.0015907965 4.6815626e-06 8.9273711e-07)
(0.0015780424 4.5201565e-06 8.5278672e-07)
(0.0015657364 4.368154e-06 8.1576961e-07)
(0.0015538526 4.2246831e-06 7.8138459e-07)
(0.0015423672 4.0890609e-06 7.4934418e-07)
(0.0015312583 3.96073e-06 7.1941223e-07)
(0.0015205058 3.8391521e-06 6.9138714e-07)
(0.0015100909 3.7238123e-06 6.6509445e-07)
(0.0014999963 3.614242e-06 6.4038016e-07)
(0.001490206 3.51003e-06 6.1711007e-07)
(0.0014807053 3.4107999e-06 5.9516023e-07)
(0.00147148 3.3162123e-06 5.7442817e-07)
(0.0014625175 3.2259595e-06 5.5481432e-07)
(0.0014538055 3.1397553e-06 5.3623539e-07)
(0.0014453328 3.0573357e-06 5.1861274e-07)
(0.0014370889 2.9784703e-06 5.0187785e-07)
(0.0014290637 2.9029573e-06 4.8596741e-07)
(0.001421248 2.830603e-06 4.7082276e-07)
(0.001413633 2.7612187e-06 4.5639232e-07)
(0.0014062104 2.6946342e-06 4.4262807e-07)
(0.0013989723 2.630691e-06 4.2948726e-07)
(0.0013919116 2.5692457e-06 4.1692971e-07)
(0.0013850211 2.5101638e-06 4.0491985e-07)
(0.0013782945 2.4533191e-06 3.9342516e-07)
(0.0013717253 2.3985949e-06 3.8241116e-07)
(0.0013653078 2.3458852e-06 3.7185161e-07)
(0.0013590364 2.2950882e-06 3.6171828e-07)
(0.0013529058 2.246105e-06 3.5198289e-07)
(0.001346911 2.1988516e-06 3.42626e-07)
(0.0013410472 2.1532418e-06 3.3362055e-07)
(0.0013353099 2.1091958e-06 3.2494473e-07)
(0.001329695 2.0666365e-06 3.165792e-07)
(0.0013241983 2.0254867e-06 3.0850049e-07)
(0.001318816 1.9856737e-06 3.006905e-07)
(0.0013135446 1.9471152e-06 2.9313022e-07)
(0.0013083808 1.9097263e-06 2.8580528e-07)
(0.0013033213 1.8734238e-06 2.7870266e-07)
(0.0012983632 1.8381155e-06 2.7181694e-07)
(0.0012935038 1.803714e-06 2.6515409e-07)
(0.0012887402 1.7701697e-06 2.5874353e-07)
(0.0012840698 1.7375334e-06 2.5265005e-07)
(0.0012794889 1.7061217e-06 2.4701443e-07)
(0.0012749925 1.676909e-06 2.421127e-07)
(0.001270572 1.6524664e-06 2.3851934e-07)
(0.0012662098 1.6393329e-06 2.3766064e-07)
(0.0012618709 1.6545766e-06 2.4458214e-07)
(0.0012574959 1.7463715e-06 2.7712518e-07)
(0.0012529717 2.0376713e-06 2.6526458e-07)
(0.0012433358 2.9514831e-06 1.3525332e-06)
(0.0095221617 0.00021179965 0.00022180582)
(0.009269783 0.00029872516 0.00026628967)
(0.0088657772 0.00031669844 0.00025526743)
(0.0083755729 0.000317438 0.00023864265)
(0.0078888426 0.00030841043 0.00021987851)
(0.0074276349 0.00028848207 0.00019850458)
(0.006988258 0.00026048391 0.00017617916)
(0.0065698164 0.00022855168 0.00015444521)
(0.0061756011 0.00019596771 0.00013413534)
(0.0058087146 0.00016504408 0.00011567593)
(0.0054706295 0.00013728621 9.9270838e-05)
(0.0051615551 0.00011345265 8.4947831e-05)
(0.0048808654 9.3684508e-05 7.2600738e-05)
(0.0046272998 7.7712989e-05 6.2044901e-05)
(0.0043991196 6.5057026e-05 5.3064542e-05)
(0.0041942886 5.5163887e-05 4.544363e-05)
(0.0040106431 4.7493346e-05 3.8982753e-05)
(0.0038460219 4.1561375e-05 3.3506381e-05)
(0.0036983537 3.6958193e-05 2.8864075e-05)
(0.0035657105 3.3351175e-05 2.4928487e-05)
(0.0034463343 3.0479503e-05 2.1592135e-05)
(0.003338646 2.8144768e-05 1.8764099e-05)
(0.003241243 2.6200153e-05 1.6367139e-05)
(0.0031528887 2.4539751e-05 1.433537e-05)
(0.0030724986 2.3088868e-05 1.261249e-05)
(0.0029991252 2.1796114e-05 1.1150134e-05)
(0.0029319421 2.0626905e-05 9.9064811e-06)
(0.0028702292 1.9558163e-05 8.8458152e-06)
(0.0028133589 1.8574038e-05 7.9385383e-06)
(0.0027607855 1.7663623e-05 7.1598239e-06)
(0.0027120345 1.6818834e-05 6.4890357e-06)
(0.0026666927 1.6033065e-05 5.9090208e-06)
(0.0026243991 1.5301094e-05 5.4052724e-06)
(0.0025848382 1.4618818e-05 4.9656521e-06)
(0.0025477347 1.3982714e-05 4.5801143e-06)
(0.0025128472 1.3389544e-05 4.2403269e-06)
(0.002479964 1.2836282e-05 3.9393554e-06)
(0.0024488994 1.2320059e-05 3.6714258e-06)
(0.0024194896 1.1838145e-05 3.4317261e-06)
(0.00239159 1.1387939e-05 3.2162512e-06)
(0.0023650729 1.0966985e-05 3.02166e-06)
(0.0023398248 1.0573e-05 2.8451728e-06)
(0.0023157449 1.0203876e-05 2.684474e-06)
(0.0022927433 9.8575812e-06 2.5375947e-06)
(0.0022707398 9.5322163e-06 2.4028641e-06)
(0.002249662 9.2260286e-06 2.2788664e-06)
(0.0022294453 8.9374191e-06 2.1643994e-06)
(0.0022100312 8.6649297e-06 2.0584389e-06)
(0.0021913666 8.4072376e-06 1.9601009e-06)
(0.0021734038 8.1631552e-06 1.8686312e-06)
(0.0021560989 7.9316223e-06 1.7833673e-06)
(0.0021394122 7.7117238e-06 1.7037081e-06)
(0.0021233074 7.502601e-06 1.6291511e-06)
(0.0021077512 7.303379e-06 1.5592829e-06)
(0.0020927129 7.1131881e-06 1.4937201e-06)
(0.0020781645 6.9314156e-06 1.432105e-06)
(0.0020640799 6.7576062e-06 1.374114e-06)
(0.0020504351 6.5912618e-06 1.3194625e-06)
(0.0020372075 6.4318785e-06 1.2678958e-06)
(0.0020243766 6.2790061e-06 1.2191872e-06)
(0.0020119231 6.1322411e-06 1.1731327e-06)
(0.001999829 5.9912213e-06 1.1295427e-06)
(0.0019880776 5.8556115e-06 1.0882492e-06)
(0.0019766531 5.7251043e-06 1.0490957e-06)
(0.0019655411 5.5994074e-06 1.0119371e-06)
(0.0019547276 5.4782449e-06 9.7664579e-07)
(0.0019441999 5.3613905e-06 9.4310082e-07)
(0.0019339458 5.2486484e-06 9.1118976e-07)
(0.0019239539 5.1398182e-06 8.8080715e-07)
(0.0019142135 5.0347028e-06 8.5186045e-07)
(0.0019047144 4.9331185e-06 8.2425979e-07)
(0.001895447 4.8349e-06 7.9792521e-07)
(0.0018864023 4.7398906e-06 7.7278089e-07)
(0.0018775718 4.6479437e-06 7.4875705e-07)
(0.0018689473 4.5589236e-06 7.2578812e-07)
(0.0018605211 4.4727006e-06 7.038141e-07)
(0.0018522861 4.3891534e-06 6.8277759e-07)
(0.0018442353 4.3081713e-06 6.6262528e-07)
(0.0018363621 4.2296395e-06 6.4330715e-07)
(0.0018286604 4.1534592e-06 6.2477593e-07)
(0.0018211241 4.0795286e-06 6.0698815e-07)
(0.0018137478 4.0077536e-06 5.8990079e-07)
(0.0018065261 3.9380368e-06 5.734731e-07)
(0.001799454 3.8702793e-06 5.5766759e-07)
(0.0017925266 3.8043826e-06 5.42447e-07)
(0.0017857396 3.7402384e-06 5.2777863e-07)
(0.0017790885 3.6777278e-06 5.1362978e-07)
(0.0017725695 3.6167271e-06 4.999699e-07)
(0.0017661787 3.5571085e-06 4.8677596e-07)
(0.0017599128 3.4987609e-06 4.7402581e-07)
(0.0017537682 3.4416543e-06 4.6170958e-07)
(0.0017477416 3.3859648e-06 4.4983608e-07)
(0.0017418294 3.3323837e-06 4.3844233e-07)
(0.0017360272 3.2827918e-06 4.2764519e-07)
(0.0017303281 3.2417781e-06 4.1776837e-07)
(0.0017247202 3.2200409e-06 4.0999068e-07)
(0.001719183 3.2421553e-06 4.0984913e-07)
(0.001713691 3.3643449e-06 4.4114432e-07)
(0.0017081999 3.7072202e-06 4.7353402e-07)
(0.0016974804 4.4611208e-06 1.8634989e-06)
(0.0095012861 0.00013951169 0.00022248511)
(0.0092133349 0.00022408324 0.00026709763)
(0.0088018509 0.0002570094 0.00025529581)
(0.0083306071 0.00026690691 0.0002382081)
(0.0078754299 0.00026502159 0.00021939836)
(0.0074527063 0.0002529565 0.00019823245)
(0.0070564396 0.00023295893 0.00017634609)
(0.0066827538 0.00020836345 0.0001552305)
(0.006331873 0.00018203353 0.00013558338)
(0.0060047052 0.00015603739 0.00011769036)
(0.0057015056 0.00013180401 0.00010166909)
(0.0054220192 0.00011020725 8.7524315e-05)
(0.0051656909 9.1631901e-05 7.5171987e-05)
(0.0049316845 7.6091187e-05 6.4472619e-05)
(0.0047188814 6.3363143e-05 5.5261149e-05)
(0.0045259349 5.3104941e-05 4.7366821e-05)
(0.0043513547 4.4932756e-05 4.06249e-05)
(0.0041935865 3.8471359e-05 3.4883033e-05)
(0.0040510752 3.3381245e-05 3.0003996e-05)
(0.0039223115 2.9370509e-05 2.5866182e-05)
(0.0038058643 2.6197263e-05 2.2362868e-05)
(0.0037004012 2.3666731e-05 1.9400961e-05)
(0.0036047 2.1625756e-05 1.6899611e-05)
(0.0035176529 1.9956325e-05 1.4788824e-05)
(0.0034382652 1.8569048e-05 1.3008104e-05)
(0.0033656513 1.7397362e-05 1.1504744e-05)
(0.0032990266 1.6392003e-05 1.0233523e-05)
(0.0032376995 1.5516241e-05 9.1565339e-06)
(0.0031810636 1.4743888e-05 8.2421114e-06)
(0.0031285885 1.4056152e-05 7.4635753e-06)
(0.0030798115 1.3438896e-05 6.7985212e-06)
(0.0030343294 1.288115e-05 6.2282228e-06)
(0.0029917905 1.2374494e-05 5.736983e-06)
(0.0029518882 1.1912419e-05 5.3116671e-06)
(0.0029143553 1.1489692e-05 4.9413533e-06)
(0.0028789586 1.1101927e-05 4.6170002e-06)
(0.0028454946 1.0745379e-05 4.3311212e-06)
(0.0028137847 1.0416775e-05 4.0775291e-06)
(0.0027836727 1.0113218e-05 3.8511088e-06)
(0.0027550209 9.8321207e-06 3.6476456e-06)
(0.0027277081 9.5711601e-06 3.463664e-06)
(0.002701627 9.32825e-06 3.2963003e-06)
(0.0026766823 9.1015162e-06 3.1431912e-06)
(0.0026527895 8.8892433e-06 3.0023828e-06)
(0.0026298729 8.6898917e-06 2.8722557e-06)
(0.0026078648 8.5020895e-06 2.7514704e-06)
(0.002586704 8.3246165e-06 2.6389099e-06)
(0.0025663358 8.1563963e-06 2.533642e-06)
(0.0025467102 7.9964757e-06 2.4348849e-06)
(0.002527782 7.844026e-06 2.3419791e-06)
(0.0025095101 7.698337e-06 2.2543613e-06)
(0.0024918566 7.5588102e-06 2.1715444e-06)
(0.0024747871 7.4248983e-06 2.0931125e-06)
(0.0024582699 7.2960214e-06 2.0187202e-06)
(0.0024422756 7.1714401e-06 1.9480698e-06)
(0.0024267775 7.050928e-06 1.8808991e-06)
(0.0024117506 6.9343771e-06 1.8169525e-06)
(0.0023971715 6.8214907e-06 1.7560021e-06)
(0.0023830185 6.7119548e-06 1.6978531e-06)
(0.0023692714 6.6055372e-06 1.6423272e-06)
(0.0023559116 6.5020443e-06 1.5892722e-06)
(0.0023429214 6.4013088e-06 1.5385372e-06)
(0.0023302844 6.3031811e-06 1.4899936e-06)
(0.0023179851 6.2075245e-06 1.4435166e-06)
(0.0023060089 6.1142035e-06 1.3989938e-06)
(0.0022943424 6.0230684e-06 1.356325e-06)
(0.0022829727 5.9340591e-06 1.3154152e-06)
(0.0022718877 5.8471301e-06 1.2761695e-06)
(0.002261076 5.762204e-06 1.2385021e-06)
(0.0022505267 5.6792e-06 1.2023311e-06)
(0.0022402296 5.5980428e-06 1.1675824e-06)
(0.0022301752 5.5186733e-06 1.1341884e-06)
(0.0022203542 5.4410316e-06 1.1020807e-06)
(0.002210758 5.3650624e-06 1.0711987e-06)
(0.0022013784 5.2907173e-06 1.0414844e-06)
(0.0021922076 5.217949e-06 1.012882e-06)
(0.0021832381 5.1467101e-06 9.8533843e-07)
(0.0021744628 5.0769588e-06 9.5880356e-07)
(0.0021658752 5.008651e-06 9.332307e-07)
(0.0021574688 4.9417453e-06 9.085734e-07)
(0.0021492375 4.8761983e-06 8.8479011e-07)
(0.0021411756 4.8119664e-06 8.6183854e-07)
(0.0021332776 4.7490002e-06 8.3967964e-07)
(0.0021255383 4.6872415e-06 8.1827168e-07)
(0.0021179527 4.6266223e-06 7.9757775e-07)
(0.0021105161 4.5670683e-06 7.7756127e-07)
(0.0021032242 4.5084829e-06 7.5818475e-07)
(0.0020960727 4.4507563e-06 7.3941157e-07)
(0.0020890577 4.3937766e-06 7.2120365e-07)
(0.0020821756 4.3374555e-06 7.0352165e-07)
(0.002075423 4.2818117e-06 6.8632179e-07)
(0.0020687967 4.2271343e-06 6.6955998e-07)
(0.0020622937 4.1743547e-06 6.5320195e-07)
(0.002055911 4.1258145e-06 6.3726205e-07)
(0.0020496453 4.0868305e-06 6.2198444e-07)
(0.0020434926 4.0687776e-06 6.0874659e-07)
(0.0020374483 4.0948774e-06 6.0452104e-07)
(0.0020315149 4.2094267e-06 6.3987781e-07)
(0.0020256647 4.4797493e-06 7.1688445e-07)
(0.0020144539 4.9057778e-06 2.2695259e-06)
(0.0094902877 9.6726608e-05 0.00022289229)
(0.00917661 0.00016632333 0.00026788105)
(0.0087449456 0.00019969046 0.00025550648)
(0.0082664657 0.00021101604 0.00023762681)
(0.00781215 0.0002109939 0.0002181603)
(0.0073950862 0.00020282359 0.00019646328)
(0.0070087986 0.00018827265 0.00017418493)
(0.006648835 0.00016968865 0.0001528463)
(0.0063142174 0.00014929331 0.00013312182)
(0.0060045996 0.00012875288 0.0001152379)
(0.0057192201 0.00010923291 9.925679e-05)
(0.0054570682 9.1490072e-05 8.5148911e-05)
(0.0052170782 7.5923401e-05 7.2816212e-05)
(0.0049981259 6.2643331e-05 6.2119133e-05)
(0.0047989841 5.1561153e-05 5.2900048e-05)
(0.0046183234 4.2472278e-05 4.4997976e-05)
(0.0044547458 3.5118725e-05 3.8256898e-05)
(0.0043068267 2.9230544e-05 3.2530442e-05)
(0.0041731526 2.4550834e-05 2.7684339e-05)
(0.0040523509 2.084911e-05 2.3597361e-05)
(0.0039431142 1.7926912e-05 2.0161344e-05)
(0.0038442168 1.56186e-05 1.7280681e-05)
(0.0037545253 1.3789365e-05 1.4871531e-05)
(0.0036730042 1.2331758e-05 1.2860863e-05)
(0.0035987172 1.1161538e-05 1.1185211e-05)
(0.0035308246 1.0213367e-05 9.788974e-06)
(0.0034685786 9.4380826e-06 8.6250712e-06)
(0.0034113173 8.7971289e-06 7.654315e-06)
(0.0033584589 8.2627214e-06 6.8439395e-06)
(0.0033094933 7.8140816e-06 6.1664548e-06)
(0.0032639753 7.4348256e-06 5.5988453e-06)
(0.0032215172 7.1121308e-06 5.1219266e-06)
(0.0031817817 6.8360967e-06 4.7197276e-06)
(0.0031444758 6.5990204e-06 4.3789736e-06)
(0.0031093448 6.3947802e-06 4.0886806e-06)
(0.0030761678 6.2184036e-06 3.8397979e-06)
(0.0030447526 6.065795e-06 3.624879e-06)
(0.003014932 5.9335278e-06 3.4378186e-06)
(0.0029865602 5.8186974e-06 3.2736178e-06)
(0.0029595097 5.7188194e-06 3.1282053e-06)
(0.002933669 5.6317499e-06 2.9982617e-06)
(0.0029089401 5.5556256e-06 2.8810978e-06)
(0.0028852364 5.4888232e-06 2.7745348e-06)
(0.0028624815 5.4299127e-06 2.676811e-06)
(0.0028406075 5.3776414e-06 2.5865053e-06)
(0.0028195538 5.3309231e-06 2.5024722e-06)
(0.0027992664 5.2888077e-06 2.4237888e-06)
(0.0027796963 5.2504806e-06 2.349711e-06)
(0.0027607998 5.2152413e-06 2.2796381e-06)
(0.002742537 5.1824971e-06 2.2130837e-06)
(0.0027248717 5.151765e-06 2.1496544e-06)
(0.0027077708 5.1226678e-06 2.0890226e-06)
(0.002691204 5.0948952e-06 2.0309207e-06)
(0.0026751435 5.0680862e-06 1.9751372e-06)
(0.0026595636 5.0410667e-06 1.9215404e-06)
(0.0026444411 5.0142596e-06 1.8699675e-06)
(0.002629754 4.9880192e-06 1.8202515e-06)
(0.0026154815 4.962074e-06 1.7722785e-06)
(0.0026016045 4.9361409e-06 1.7259602e-06)
(0.0025881054 4.9100834e-06 1.6812141e-06)
(0.0025749674 4.8838319e-06 1.6379654e-06)
(0.002562175 4.8573402e-06 1.5961453e-06)
(0.0025497136 4.8305812e-06 1.5556929e-06)
(0.0025375693 4.8035393e-06 1.5165487e-06)
(0.0025257292 4.7761769e-06 1.4786608e-06)
(0.002514181 4.7483856e-06 1.4419855e-06)
(0.0025029134 4.7202765e-06 1.4064838e-06)
(0.0024919153 4.6919147e-06 1.372102e-06)
(0.0024811765 4.6632904e-06 1.3387979e-06)
(0.002470687 4.6344029e-06 1.3065285e-06)
(0.0024604377 4.6052693e-06 1.2752596e-06)
(0.0024504197 4.5759085e-06 1.2449538e-06)
(0.0024406247 4.5463464e-06 1.2155764e-06)
(0.0024310448 4.516601e-06 1.1870927e-06)
(0.0024216723 4.4866946e-06 1.1594729e-06)
(0.0024125001 4.456651e-06 1.1326843e-06)
(0.0024035213 4.4264892e-06 1.1066971e-06)
(0.0023947295 4.3962292e-06 1.081483e-06)
(0.0023861184 4.3658904e-06 1.0570136e-06)
(0.0023776821 4.3354864e-06 1.0332595e-06)
(0.0023694149 4.3050332e-06 1.0101957e-06)
(0.0023613115 4.2745356e-06 9.877954e-07)
(0.0023533667 4.2439942e-06 9.6602991e-07)
(0.0023455757 4.2133983e-06 9.4487484e-07)
(0.0023379338 4.182722e-06 9.2429932e-07)
(0.0023304365 4.151928e-06 9.0427541e-07)
(0.0023230798 4.1209554e-06 8.8477271e-07)
(0.0023158598 4.0897262e-06 8.6575225e-07)
(0.0023087726 4.0581573e-06 8.4717227e-07)
(0.002301815 4.0261914e-06 8.2897987e-07)
(0.0022949838 3.9938782e-06 8.1110693e-07)
(0.0022882766 3.9615317e-06 7.9346237e-07)
(0.002281691 3.9300777e-06 7.7594313e-07)
(0.0022752261 3.9016923e-06 7.5847782e-07)
(0.002268882 3.8809406e-06 7.4124646e-07)
(0.0022626608 3.8766482e-06 7.2572678e-07)
(0.0022565686 3.904304e-06 7.1957954e-07)
(0.0022506189 3.986655e-06 7.5579909e-07)
(0.0022447715 4.1391004e-06 8.4931737e-07)
(0.002233564 4.2832261e-06 2.4122102e-06)
(0.0094843561 6.6886586e-05 0.00022303624)
(0.0091549219 0.00011904886 0.00026838771)
(0.0087072816 0.00014772497 0.00025588053)
(0.0082191888 0.00015892953 0.00023765677)
(0.0077602858 0.00016026049 0.00021787143)
(0.0073412804 0.00015505102 0.00019586613)
(0.0069552494 0.00014481701 0.00017327438)
(0.0065978366 0.00013121474 0.00015165024)
(0.0062677954 0.00011592881 0.00013169211)
(0.0059642872 0.00010028521 0.0001136244)
(0.0056860598 8.521443e-05 9.7497522e-05)
(0.0054316726 7.1330407e-05 8.3272195e-05)
(0.0051997008 5.8984298e-05 7.0844883e-05)
(0.0049887459 4.8311754e-05 6.0073373e-05)
(0.0047973943 3.9291583e-05 5.0798889e-05)
(0.0046242055 3.1804355e-05 4.2859902e-05)
(0.0044677269 2.5679086e-05 3.6099807e-05)
(0.0043265179 2.0725785e-05 3.0371291e-05)
(0.0041991724 1.6756344e-05 2.5538701e-05)
(0.004084339 1.3596838e-05 2.1479083e-05)
(0.0039807371 1.1093752e-05 1.8082323e-05)
(0.0038871692 9.1161641e-06 1.5250791e-05)
(0.0038025288 7.5553806e-06 1.2898648e-05)
(0.003725804 6.3231337e-06 1.0950986e-05)
(0.0036560786 5.3488182e-06 9.3426773e-06)
(0.0035925304 4.5751808e-06 8.0166137e-06)
(0.0035344253 3.9621003e-06 6.9239485e-06)
(0.0034811131 3.472628e-06 6.0250729e-06)
(0.0034320221 3.0815204e-06 5.2862639e-06)
(0.0033866501 2.7702772e-06 4.6792111e-06)
(0.0033445586 2.5236746e-06 4.1805221e-06)
(0.0033053662 2.3295868e-06 3.7707527e-06)
(0.0032687419 2.1784979e-06 3.4337447e-06)
(0.0032343982 2.0629059e-06 3.1561113e-06)
(0.0032020863 1.9768093e-06 2.9267969e-06)
(0.0031715907 1.9153165e-06 2.7367029e-06)
(0.0031427248 1.8743795e-06 2.5783553e-06)
(0.0031153267 1.8506051e-06 2.4456294e-06)
(0.0030892563 1.8411253e-06 2.3335225e-06)
(0.0030643915 1.8434991e-06 2.2379671e-06)
(0.003040626 1.8556444e-06 2.1556639e-06)
(0.0030178671 1.8757791e-06 2.0839517e-06)
(0.0029960335 1.9023793e-06 2.0206937e-06)
(0.0029750538 1.9341338e-06 1.9641815e-06)
(0.0029548649 1.969914e-06 1.9130523e-06)
(0.0029354109 2.0087612e-06 1.8662263e-06)
(0.0029166424 2.0498569e-06 1.8228519e-06)
(0.0028985148 2.0925084e-06 1.7822575e-06)
(0.0028809886 2.136136e-06 1.7439149e-06)
(0.0028640277 2.1802702e-06 1.7074098e-06)
(0.0028475999 2.22455e-06 1.6724138e-06)
(0.0028316758 2.2687595e-06 1.6386553e-06)
(0.0028162284 2.3128919e-06 1.6058723e-06)
(0.0028012324 2.3570784e-06 1.5738226e-06)
(0.0027866658 2.3978724e-06 1.5431877e-06)
(0.0027725089 2.4362358e-06 1.5136868e-06)
(0.0027587418 2.4734407e-06 1.4848887e-06)
(0.002745346 2.509535e-06 1.4567003e-06)
(0.002732305 2.5443505e-06 1.429115e-06)
(0.0027196032 2.5777718e-06 1.4021114e-06)
(0.0027072261 2.6097239e-06 1.375664e-06)
(0.0026951602 2.6401669e-06 1.3497562e-06)
(0.0026833928 2.6690892e-06 1.3243749e-06)
(0.0026719116 2.6965043e-06 1.2995091e-06)
(0.0026607054 2.7223745e-06 1.2751526e-06)
(0.0026497635 2.746357e-06 1.2513134e-06)
(0.002639076 2.7689092e-06 1.2279781e-06)
(0.0026286333 2.7901461e-06 1.2051289e-06)
(0.0026184262 2.8099936e-06 1.1827611e-06)
(0.0026084461 2.8284317e-06 1.1608697e-06)
(0.0025986849 2.8454948e-06 1.1394491e-06)
(0.0025891348 2.8612168e-06 1.1184911e-06)
(0.0025797885 2.8756481e-06 1.0979864e-06)
(0.002570639 2.8888295e-06 1.0779284e-06)
(0.0025616795 2.9008053e-06 1.0583095e-06)
(0.0025529038 2.911619e-06 1.0391185e-06)
(0.0025443058 2.9213128e-06 1.0203488e-06)
(0.0025358796 2.9299303e-06 1.0019894e-06)
(0.0025276198 2.9375078e-06 9.840319e-07)
(0.002519521 2.9440794e-06 9.6646467e-07)
(0.0025115783 2.9496816e-06 9.4927886e-07)
(0.0025037869 2.9543384e-06 9.3246157e-07)
(0.0024961421 2.9580693e-06 9.1599943e-07)
(0.0024886396 2.9608824e-06 8.9988014e-07)
(0.0024812752 2.962775e-06 8.8408499e-07)
(0.002474045 2.9637245e-06 8.6859362e-07)
(0.0024669452 2.9636896e-06 8.5338098e-07)
(0.0024599723 2.9626129e-06 8.3841381e-07)
(0.0024531231 2.9604316e-06 8.2364283e-07)
(0.0024463945 2.9570972e-06 8.0900388e-07)
(0.0024397839 2.952652e-06 7.9439787e-07)
(0.0024332895 2.9473514e-06 7.7969352e-07)
(0.0024269099 2.9419131e-06 7.647087e-07)
(0.0024206457 2.9379227e-06 7.492598e-07)
(0.0024144993 2.9384192e-06 7.333651e-07)
(0.0024084767 2.9484956e-06 7.1826446e-07)
(0.0024025877 2.9751252e-06 7.1113258e-07)
(0.002396846 3.0234612e-06 7.4331272e-07)
(0.0023911946 3.08083e-06 8.3046546e-07)
(0.0023803644 3.0574256e-06 2.299943e-06)
(0.0094810492 4.4090136e-05 0.00022308885)
(0.0091422796 7.9975484e-05 0.00026874495)
(0.0086839084 0.00010160921 0.00025628771)
(0.0081880903 0.00011101591 0.00023793456)
(0.0077246858 0.00011275118 0.00021798622)
(0.0073029895 0.00010953687 0.00019578738)
(0.0069155191 0.00010266029 0.00017296032)
(0.0065579578 9.3267235e-05 0.0001510852)
(0.006229001 8.2539593e-05 0.00013089045)
(0.005927585 7.1446831e-05 0.00011261412)
(0.0056522063 6.0673359e-05 9.630924e-05)
(0.0054012005 5.0670808e-05 8.1936268e-05)
(0.0051729477 4.1706608e-05 6.9390832e-05)
(0.004965887 3.3898116e-05 5.8529097e-05)
(0.0047784814 2.7249954e-05 4.9189878e-05)
(0.0046092054 2.1693074e-05 4.1208773e-05)
(0.0044565535 1.7117437e-05 3.4426143e-05)
(0.0043190553 1.339552e-05 2.8691659e-05)
(0.0041952917 1.0397812e-05 2.3866804e-05)
(0.0040839086 8.0023319e-06 1.9826012e-05)
(0.0039836292 6.0997704e-06 1.6456861e-05)
(0.0038932634 4.5956631e-06 1.3659715e-05)
(0.0038117126 3.4106727e-06 1.1347012e-05)
(0.0037379734 2.4799282e-06 9.4422914e-06)
(0.0036711359 1.7515113e-06 7.8790889e-06)
(0.0036103859 1.1749047e-06 6.6010337e-06)
(0.0035549935 7.2234111e-07 5.5561204e-06)
(0.0035043108 3.7342539e-07 4.70607e-06)
(0.0034577717 1.0569664e-07 4.0163443e-06)
(0.0034148763 -9.9089146e-08 3.457414e-06)
(0.0033751872 -2.5333554e-07 3.0054961e-06)
(0.0033383243 -3.6639985e-07 2.6409746e-06)
(0.0033039576 -4.457789e-07 2.3475733e-06)
(0.0032718009 -4.9748258e-07 2.1118262e-06)
(0.0032416065 -5.2634559e-07 1.9226415e-06)
(0.0032131599 -5.3631013e-07 1.7709148e-06)
(0.0031862758 -5.3064046e-07 1.6492027e-06)
(0.0031607936 -5.1206236e-07 1.5514408e-06)
(0.0031365743 -4.8287181e-07 1.4727105e-06)
(0.0031134976 -4.4500761e-07 1.4090337e-06)
(0.0030914586 -4.0011213e-07 1.3572062e-06)
(0.0030703663 -3.495809e-07 1.3146574e-06)
(0.0030501409 -2.9459717e-07 1.2793307e-06)
(0.0030307129 -2.3616839e-07 1.2495914e-06)
(0.0030120207 -1.7516453e-07 1.2241395e-06)
(0.0029940105 -1.1232141e-07 1.2019526e-06)
(0.0029766343 -4.8268551e-08 1.1822235e-06)
(0.0029598495 1.6449111e-08 1.1643209e-06)
(0.0029436181 8.1353654e-08 1.1477531e-06)
(0.002927906 1.4602325e-07 1.1321249e-06)
(0.0029126825 2.1005806e-07 1.1171177e-06)
(0.0028979201 2.7304802e-07 1.1024392e-06)
(0.0028835935 3.3454079e-07 1.0876607e-06)
(0.0028696773 3.9432251e-07 1.0722027e-06)
(0.0028561514 4.5704916e-07 1.0590082e-06)
(0.0028429997 5.2060067e-07 1.0472576e-06)
(0.0028302035 5.8225334e-07 1.035607e-06)
(0.0028177449 6.416383e-07 1.0238e-06)
(0.0028056084 6.9901915e-07 1.011874e-06)
(0.0027937799 7.5456054e-07 9.9986907e-07)
(0.0027822461 8.083495e-07 9.878104e-07)
(0.0027709946 8.6046832e-07 9.7571842e-07)
(0.0027600137 9.1102648e-07 9.6360226e-07)
(0.0027492926 9.6019529e-07 9.5144713e-07)
(0.0027388207 1.0080069e-06 9.3926762e-07)
(0.0027285887 1.0528504e-06 9.2746562e-07)
(0.0027185878 1.095867e-06 9.1582972e-07)
(0.0027088089 1.1374995e-06 9.0425365e-07)
(0.0026992438 1.1777667e-06 8.9276016e-07)
(0.0026898847 1.2166572e-06 8.8136525e-07)
(0.0026807244 1.2541714e-06 8.7007924e-07)
(0.0026717559 1.290314e-06 8.5890699e-07)
(0.0026629726 1.3251075e-06 8.4785255e-07)
(0.0026543682 1.3585729e-06 8.3692259e-07)
(0.0026459367 1.3907399e-06 8.2612166e-07)
(0.0026376723 1.4216355e-06 8.154534e-07)
(0.0026295698 1.4512894e-06 8.0492012e-07)
(0.0026216238 1.4797331e-06 7.9452202e-07)
(0.0026138294 1.5069922e-06 7.8426277e-07)
(0.002606182 1.5330942e-06 7.7413983e-07)
(0.0025986769 1.5580642e-06 7.6415263e-07)
(0.0025913099 1.5819212e-06 7.5429399e-07)
(0.0025840769 1.6046816e-06 7.4456453e-07)
(0.0025769739 1.6263497e-06 7.3495267e-07)
(0.0025699972 1.6469228e-06 7.2544823e-07)