/*--------------------------------*- C++ -*----------------------------------*\
  =========                 |
  \\      /  F ield         | OpenFOAM: The Open Source CFD Toolbox
   \\    /   O peration     | Website:  https://openfoam.org
    \\  /    A nd           | Version:  7
     \\/     M anipulation  |
\*---------------------------------------------------------------------------*/
FoamFile
{
    version     2.0;
    format      ascii;
    class       volVectorField;
    location    "200/water";
    object      U;
}
// * * * * * * * * * * * * * * * * * * * * * * * * * * * * * * * * * * * * * //

dimensions      [0 1 -1 0 0 0 0];

internalField   nonuniform List<vector> 
54000
(
(0.0090020934 0.00020305973 0.00020444027)
(0.0083186447 0.00023622738 0.00023904411)
(0.0073695241 0.00021363852 0.00021763527)
(0.0063566114 0.00018488016 0.00018965819)
(0.0054486673 0.00015530836 0.00016048632)
(0.0046741594 0.00012529952 0.00013052937)
(0.0040193038 9.7052611e-05 0.00010203017)
(0.0034740067 7.2578999e-05 7.7073287e-05)
(0.0030302461 5.2876126e-05 5.6738328e-05)
(0.0026757323 3.806815e-05 4.1216513e-05)
(0.0023947254 2.7637704e-05 3.003714e-05)
(0.0021713898 2.0689034e-05 2.2336509e-05)
(0.0019919695 1.623616e-05 1.7152703e-05)
(0.0018455015 1.3416236e-05 1.3643172e-05)
(0.0017237326 1.1582489e-05 1.1179122e-05)
(0.0016206928 1.0304892e-05 9.3455813e-06)
(0.0015321593 9.3257911e-06 7.8957159e-06)
(0.0014551546 8.5052961e-06 6.6953114e-06)
(0.0013875459 7.774634e-06 5.6760579e-06)
(0.0013277612 7.1034282e-06 4.8034868e-06)
(0.001274601 6.47985e-06 4.0581568e-06)
(0.0012271179 5.899946e-06 3.4261576e-06)
(0.0011845424 5.3625301e-06 2.8950711e-06)
(0.001146235 4.8670212e-06 2.4526292e-06)
(0.0011116558 4.4125995e-06 2.0869764e-06)
(0.0010803434 3.9980127e-06 1.7867448e-06)
(0.0010519002 3.6214606e-06 1.5416128e-06)
(0.0010259819 3.2805938e-06 1.3421859e-06)
(0.001002289 2.9733954e-06 1.1797314e-06)
(0.00098056199 2.6979491e-06 1.0463201e-06)
(0.00096057572 2.4519212e-06 9.3658992e-07)
(0.00094213242 2.2325664e-06 8.4693438e-07)
(0.00092505792 2.037387e-06 7.7316703e-07)
(0.00090920047 1.8640897e-06 7.1184271e-07)
(0.00089442818 1.7104623e-06 6.6046728e-07)
(0.0008806259 1.5743826e-06 6.1707348e-07)
(0.00086769295 1.4538611e-06 5.8005357e-07)
(0.00085554128 1.3470703e-06 5.4811485e-07)
(0.00084409387 1.2523499e-06 5.2023883e-07)
(0.00083328322 1.1681984e-06 4.9562765e-07)
(0.00082305015 1.0932617e-06 4.7365339e-07)
(0.00081334267 1.0262296e-06 4.5378257e-07)
(0.00080411487 9.6585868e-07 4.3554436e-07)
(0.00079532615 9.1131022e-07 4.1864956e-07)
(0.00078694071 8.6191654e-07 4.0290787e-07)
(0.00077892675 8.1708271e-07 3.8816888e-07)
(0.00077125603 7.7627672e-07 3.7432087e-07)
(0.0007639033 7.3902617e-07 3.6127597e-07)
(0.00075684598 7.0491447e-07 3.48964e-07)
(0.00075006373 6.7357564e-07 3.3733106e-07)
(0.00074353822 6.446939e-07 3.2633663e-07)
(0.00073725294 6.1802557e-07 3.1581836e-07)
(0.00073119314 5.9334787e-07 3.0574356e-07)
(0.00072534528 5.7041935e-07 2.9621096e-07)
(0.00071969687 5.4902499e-07 2.8716614e-07)
(0.00071423653 5.2901433e-07 2.7854315e-07)
(0.00070895386 5.1027378e-07 2.7031196e-07)
(0.00070383928 4.9268779e-07 2.6244795e-07)
(0.00069888397 4.761446e-07 2.5493217e-07)
(0.00069407976 4.6054982e-07 2.4774325e-07)
(0.00068941911 4.4582018e-07 2.4086357e-07)
(0.00068489502 4.3188451e-07 2.3427562e-07)
(0.00068050098 4.1867938e-07 2.2796378e-07)
(0.00067623091 4.0614657e-07 2.219116e-07)
(0.00067207915 3.9423481e-07 2.1610609e-07)
(0.00066804042 3.8289681e-07 2.1053139e-07)
(0.00066410976 3.7209439e-07 2.0517802e-07)
(0.00066028251 3.6179407e-07 2.0003249e-07)
(0.00065655429 3.5196246e-07 1.9508272e-07)
(0.00065292099 3.4256932e-07 1.9031754e-07)
(0.00064937872 3.3358575e-07 1.8572862e-07)
(0.00064592384 3.2498771e-07 1.8130606e-07)
(0.00064255289 3.1675137e-07 1.7704031e-07)
(0.00063926261 3.0885664e-07 1.7292474e-07)
(0.00063604993 3.0128268e-07 1.6895175e-07)
(0.00063291192 2.9401318e-07 1.6511024e-07)
(0.00062984583 2.8703083e-07 1.613977e-07)
(0.00062684904 2.8032121e-07 1.5780362e-07)
(0.00062391907 2.7387141e-07 1.5432051e-07)
(0.00062105358 2.6766555e-07 1.5094186e-07)
(0.00061825035 2.6169447e-07 1.4766071e-07)
(0.00061550727 2.5594534e-07 1.444694e-07)
(0.00061282235 2.5040672e-07 1.4136016e-07)
(0.00061019373 2.450685e-07 1.3832494e-07)
(0.00060761965 2.3992007e-07 1.3535606e-07)
(0.00060509846 2.3494616e-07 1.3244877e-07)
(0.00060262863 2.3013567e-07 1.2959789e-07)
(0.00060020873 2.2546933e-07 1.2680397e-07)
(0.00059783744 2.2093136e-07 1.2407546e-07)
(0.00059551348 2.1649756e-07 1.2143299e-07)
(0.00059323555 2.1214954e-07 1.1892976e-07)
(0.00059100214 2.0787193e-07 1.1666261e-07)
(0.00058881114 2.0369032e-07 1.148301e-07)
(0.00058665898 1.997311e-07 1.138206e-07)
(0.00058453869 1.9638329e-07 1.1441033e-07)
(0.00058243501 1.9487261e-07 1.1837337e-07)
(0.00058031396 1.9977506e-07 1.3094422e-07)
(0.0005781161 2.2258527e-07 1.6397649e-07)
(0.00057566369 1.9706953e-07 1.5080654e-07)
(0.00056906201 7.8896418e-07 7.5322575e-07)
(0.0095316863 0.0003313754 0.00022336697)
(0.0092716504 0.00041105942 0.00027052342)
(0.0087756651 0.00040317187 0.00026060062)
(0.0081527518 0.00038218754 0.00024252081)
(0.0075302151 0.00035309574 0.00022101124)
(0.0069425889 0.00031541062 0.00019648834)
(0.006391209 0.00027309198 0.00017102969)
(0.0058791845 0.00023030693 0.00014652546)
(0.0054120202 0.00019001854 0.00012410997)
(0.0049926512 0.00015423459 0.00010436627)
(0.004620592 0.00012408347 8.7479017e-05)
(0.0042931332 9.9809403e-05 7.3327495e-05)
(0.0040063965 8.0956424e-05 6.1601504e-05)
(0.0037559538 6.667221e-05 5.1918794e-05)
(0.0035372541 5.59858e-05 4.3907445e-05)
(0.003345947 4.7992056e-05 3.7246645e-05)
(0.0031780884 4.194171e-05 3.1677529e-05)
(0.0030302311 3.7262446e-05 2.699792e-05)
(0.0028994324 3.3540995e-05 2.3051137e-05)
(0.0027832152 3.0490244e-05 1.9714593e-05)
(0.0026795075 2.7915735e-05 1.6890544e-05)
(0.0025865783 2.5687841e-05 1.4499382e-05)
(0.002502978 2.3720893e-05 1.2475016e-05)
(0.0024274871 2.1958431e-05 1.0761726e-05)
(0.0023590736 2.0362993e-05 9.3122324e-06)
(0.0022968589 1.8909454e-05 8.0861291e-06)
(0.0022400906 1.7580768e-05 7.0489625e-06)
(0.0021881216 1.6364899e-05 6.1714975e-06)
(0.0021403932 1.5251964e-05 5.428314e-06)
(0.0020964214 1.4233849e-05 4.7973499e-06)
(0.0020557868 1.330304e-05 4.2604817e-06)
(0.0020181236 1.2451985e-05 3.8027032e-06)
(0.0019831119 1.1673908e-05 3.4109606e-06)
(0.0019504718 1.0962755e-05 3.0744201e-06)
(0.0019199589 1.0312854e-05 2.7842602e-06)
(0.0018913593 9.7188336e-06 2.5331809e-06)
(0.0018644851 9.1756445e-06 2.315074e-06)
(0.0018391716 8.6785717e-06 2.1248312e-06)
(0.0018152735 8.223242e-06 1.958184e-06)
(0.001792663 7.8056205e-06 1.8115679e-06)
(0.0017712268 7.421999e-06 1.682011e-06)
(0.001750865 7.0689379e-06 1.56707e-06)
(0.0017314886 6.7432682e-06 1.4647423e-06)
(0.0017130186 6.4422724e-06 1.3732748e-06)
(0.0016953848 6.1635569e-06 1.2911588e-06)
(0.0016785241 5.9049787e-06 1.2171197e-06)
(0.00166238 5.6646105e-06 1.1500842e-06)
(0.0016469019 5.4407257e-06 1.0891492e-06)
(0.001632044 5.2317771e-06 1.0335534e-06)
(0.0016177649 5.0363851e-06 9.8265365e-07)
(0.0016040271 4.8533218e-06 9.3589393e-07)
(0.0015907965 4.6815629e-06 8.9273693e-07)
(0.0015780424 4.5201583e-06 8.5278653e-07)
(0.0015657364 4.3681536e-06 8.1577032e-07)
(0.0015538526 4.2246826e-06 7.8138509e-07)
(0.0015423672 4.0890601e-06 7.4934593e-07)
(0.0015312583 3.9607288e-06 7.1941331e-07)
(0.0015205058 3.8391523e-06 6.9138729e-07)
(0.0015100909 3.7238126e-06 6.6509372e-07)
(0.0014999963 3.614243e-06 6.4037884e-07)
(0.0014902061 3.5100288e-06 6.1710817e-07)
(0.0014807053 3.4107989e-06 5.9515969e-07)
(0.00147148 3.3162113e-06 5.7442686e-07)
(0.0014625175 3.2259597e-06 5.5481431e-07)
(0.0014538055 3.1397546e-06 5.3623608e-07)
(0.0014453328 3.0573343e-06 5.1861457e-07)
(0.0014370889 2.9784695e-06 5.0187802e-07)
(0.0014290637 2.9029583e-06 4.8596732e-07)
(0.001421248 2.830603e-06 4.7082325e-07)
(0.001413633 2.761219e-06 4.5639264e-07)
(0.0014062104 2.6946334e-06 4.4262864e-07)
(0.0013989723 2.6306904e-06 4.2948745e-07)
(0.0013919116 2.5692458e-06 4.1692995e-07)
(0.0013850212 2.5101634e-06 4.0492017e-07)
(0.0013782945 2.4533188e-06 3.9342453e-07)
(0.0013717253 2.3985949e-06 3.8241168e-07)
(0.0013653078 2.3458847e-06 3.7185093e-07)
(0.0013590364 2.2950857e-06 3.617173e-07)
(0.0013529058 2.246105e-06 3.5198454e-07)
(0.001346911 2.1988505e-06 3.4262583e-07)
(0.0013410472 2.1532408e-06 3.336204e-07)
(0.0013353099 2.1091957e-06 3.2494566e-07)
(0.001329695 2.0666365e-06 3.1657948e-07)
(0.0013241983 2.0254869e-06 3.0850034e-07)
(0.001318816 1.9856738e-06 3.0069084e-07)
(0.0013135446 1.9471139e-06 2.9313061e-07)
(0.0013083808 1.9097272e-06 2.8580482e-07)
(0.0013033213 1.8734235e-06 2.787011e-07)
(0.0012983632 1.8381143e-06 2.7181628e-07)
(0.0012935038 1.8037127e-06 2.6515355e-07)
(0.0012887402 1.7701695e-06 2.5874334e-07)
(0.0012840698 1.7375325e-06 2.5265048e-07)
(0.0012794889 1.7061208e-06 2.4701396e-07)
(0.0012749925 1.6769088e-06 2.4211329e-07)
(0.001270572 1.6524669e-06 2.3851816e-07)
(0.0012662098 1.6393337e-06 2.3765858e-07)
(0.0012618709 1.654578e-06 2.4458199e-07)
(0.0012574959 1.7463724e-06 2.7712423e-07)
(0.0012529717 2.0376718e-06 2.6526517e-07)
(0.0012433358 2.9514822e-06 1.3525337e-06)
(0.0095221617 0.00021179965 0.00022180581)
(0.009269783 0.00029872516 0.00026628967)
(0.0088657772 0.00031669844 0.00025526743)
(0.0083755729 0.000317438 0.00023864265)
(0.0078888426 0.00030841043 0.00021987851)
(0.0074276349 0.00028848207 0.00019850457)
(0.006988258 0.00026048391 0.00017617916)
(0.0065698164 0.00022855168 0.00015444521)
(0.0061756011 0.00019596771 0.00013413534)
(0.0058087146 0.00016504408 0.00011567593)
(0.0054706295 0.00013728621 9.9270838e-05)
(0.0051615551 0.00011345265 8.4947831e-05)
(0.0048808654 9.3684508e-05 7.2600738e-05)
(0.0046272998 7.7712989e-05 6.2044901e-05)
(0.0043991196 6.5057026e-05 5.3064542e-05)
(0.0041942886 5.5163888e-05 4.544363e-05)
(0.0040106431 4.7493347e-05 3.8982753e-05)
(0.0038460219 4.1561377e-05 3.3506381e-05)
(0.0036983537 3.6958193e-05 2.8864075e-05)
(0.0035657105 3.3351175e-05 2.4928487e-05)
(0.0034463343 3.0479502e-05 2.1592136e-05)
(0.003338646 2.8144768e-05 1.87641e-05)
(0.003241243 2.6200154e-05 1.6367139e-05)
(0.0031528887 2.4539752e-05 1.4335369e-05)
(0.0030724986 2.3088866e-05 1.261249e-05)
(0.0029991252 2.1796112e-05 1.1150134e-05)
(0.0029319421 2.0626905e-05 9.9064821e-06)
(0.0028702292 1.9558164e-05 8.845815e-06)
(0.0028133589 1.8574038e-05 7.9385376e-06)
(0.0027607855 1.7663623e-05 7.1598229e-06)
(0.0027120345 1.6818833e-05 6.4890356e-06)
(0.0026666927 1.6033066e-05 5.9090202e-06)
(0.0026243991 1.5301096e-05 5.4052723e-06)
(0.0025848383 1.461882e-05 4.9656526e-06)
(0.0025477347 1.3982713e-05 4.5801149e-06)
(0.0025128472 1.3389543e-05 4.2403267e-06)
(0.002479964 1.2836281e-05 3.9393566e-06)
(0.0024488994 1.2320059e-05 3.6714258e-06)
(0.0024194896 1.1838144e-05 3.4317258e-06)
(0.00239159 1.138794e-05 3.2162513e-06)
(0.0023650729 1.0966986e-05 3.0216603e-06)
(0.0023398248 1.0573e-05 2.8451734e-06)
(0.0023157449 1.0203874e-05 2.6844741e-06)
(0.0022927433 9.8575809e-06 2.537594e-06)
(0.0022707398 9.5322163e-06 2.4028638e-06)
(0.002249662 9.2260293e-06 2.2788662e-06)
(0.0022294453 8.9374198e-06 2.1643997e-06)
(0.0022100312 8.66493e-06 2.0584384e-06)
(0.0021913666 8.4072379e-06 1.9601012e-06)
(0.0021734038 8.1631551e-06 1.8686321e-06)
(0.0021560989 7.9316211e-06 1.783367e-06)
(0.0021394122 7.7117249e-06 1.7037086e-06)
(0.0021233074 7.5026033e-06 1.6291521e-06)
(0.0021077512 7.3033797e-06 1.5592836e-06)
(0.0020927129 7.1131872e-06 1.4937193e-06)
(0.0020781645 6.9314161e-06 1.4321041e-06)
(0.0020640799 6.7576058e-06 1.3741149e-06)
(0.0020504351 6.5912617e-06 1.3194618e-06)
(0.0020372075 6.4318801e-06 1.2678943e-06)
(0.0020243766 6.2790062e-06 1.2191868e-06)
(0.0020119231 6.1322414e-06 1.1731321e-06)
(0.001999829 5.9912219e-06 1.1295435e-06)
(0.0019880776 5.8556109e-06 1.08825e-06)
(0.0019766531 5.7251042e-06 1.0490956e-06)
(0.0019655411 5.5994076e-06 1.0119384e-06)
(0.0019547276 5.4782451e-06 9.7664709e-07)
(0.0019441999 5.3613891e-06 9.4310107e-07)
(0.0019339458 5.2486493e-06 9.1118946e-07)
(0.0019239539 5.1398188e-06 8.8080736e-07)
(0.0019142135 5.0347029e-06 8.5186056e-07)
(0.0019047144 4.9331195e-06 8.2426052e-07)
(0.001895447 4.8349002e-06 7.9792564e-07)
(0.0018864023 4.7398909e-06 7.7278034e-07)
(0.0018775718 4.6479433e-06 7.4875591e-07)
(0.0018689473 4.5589235e-06 7.2578728e-07)
(0.0018605211 4.4727e-06 7.0381406e-07)
(0.0018522861 4.3891536e-06 6.8277699e-07)
(0.0018442353 4.3081691e-06 6.6262562e-07)
(0.0018363621 4.229639e-06 6.4330772e-07)
(0.0018286604 4.1534572e-06 6.2477681e-07)
(0.0018211241 4.0795279e-06 6.0698849e-07)
(0.0018137478 4.0077532e-06 5.8990103e-07)
(0.0018065261 3.9380359e-06 5.7347334e-07)
(0.001799454 3.870278e-06 5.5766771e-07)
(0.0017925266 3.8043815e-06 5.4244752e-07)
(0.0017857396 3.7402371e-06 5.2777844e-07)
(0.0017790885 3.6777276e-06 5.1362949e-07)
(0.0017725695 3.6167256e-06 4.9996949e-07)
(0.0017661787 3.5571069e-06 4.8677559e-07)
(0.0017599128 3.4987605e-06 4.740247e-07)
(0.0017537682 3.4416535e-06 4.6170951e-07)
(0.0017477416 3.3859632e-06 4.4983569e-07)
(0.0017418294 3.3323817e-06 4.3844267e-07)
(0.0017360272 3.2827913e-06 4.2764537e-07)
(0.0017303281 3.2417778e-06 4.1776771e-07)
(0.0017247202 3.2200424e-06 4.0999043e-07)
(0.001719183 3.2421582e-06 4.0984966e-07)
(0.001713691 3.3643452e-06 4.4114392e-07)
(0.0017081999 3.7072192e-06 4.7353379e-07)
(0.0016974804 4.4611203e-06 1.8634994e-06)
(0.0095012861 0.00013951169 0.00022248511)
(0.0092133349 0.00022408324 0.00026709763)
(0.0088018509 0.0002570094 0.00025529581)
(0.0083306071 0.00026690691 0.0002382081)
(0.0078754299 0.00026502159 0.00021939836)
(0.0074527063 0.0002529565 0.00019823245)
(0.0070564396 0.00023295893 0.00017634609)
(0.0066827538 0.00020836345 0.0001552305)
(0.006331873 0.00018203353 0.00013558338)
(0.0060047052 0.00015603739 0.00011769036)
(0.0057015056 0.000131804 0.00010166909)
(0.0054220192 0.00011020725 8.7524314e-05)
(0.0051656909 9.16319e-05 7.5171985e-05)
(0.0049316845 7.6091187e-05 6.4472617e-05)
(0.0047188814 6.3363143e-05 5.5261149e-05)
(0.0045259349 5.3104942e-05 4.736682e-05)
(0.0043513547 4.4932756e-05 4.06249e-05)
(0.0041935865 3.847136e-05 3.4883032e-05)
(0.0040510752 3.3381247e-05 3.0003996e-05)
(0.0039223115 2.937051e-05 2.5866183e-05)
(0.0038058643 2.6197263e-05 2.2362868e-05)
(0.0037004012 2.3666731e-05 1.9400962e-05)
(0.0036047 2.1625758e-05 1.6899611e-05)
(0.0035176529 1.9956327e-05 1.4788824e-05)
(0.0034382652 1.8569048e-05 1.3008106e-05)
(0.0033656513 1.7397362e-05 1.1504746e-05)
(0.0032990266 1.6392005e-05 1.0233524e-05)
(0.0032376995 1.5516242e-05 9.1565341e-06)
(0.0031810636 1.4743889e-05 8.2421112e-06)
(0.0031285885 1.4056153e-05 7.4635754e-06)
(0.0030798115 1.3438894e-05 6.7985204e-06)
(0.0030343294 1.2881151e-05 6.228222e-06)
(0.0029917905 1.2374497e-05 5.7369835e-06)
(0.0029518882 1.1912421e-05 5.3116671e-06)
(0.0029143553 1.1489691e-05 4.941354e-06)
(0.0028789586 1.1101927e-05 4.6170011e-06)
(0.0028454946 1.0745379e-05 4.3311232e-06)
(0.0028137847 1.0416774e-05 4.0775283e-06)
(0.0027836727 1.0113219e-05 3.8511079e-06)
(0.0027550209 9.8321219e-06 3.6476458e-06)
(0.0027277081 9.5711589e-06 3.4636636e-06)
(0.002701627 9.3282501e-06 3.2963005e-06)
(0.0026766823 9.1015147e-06 3.1431913e-06)
(0.0026527895 8.8892438e-06 3.0023821e-06)
(0.0026298729 8.6898922e-06 2.8722559e-06)
(0.0026078648 8.5020883e-06 2.7514707e-06)
(0.002586704 8.3246161e-06 2.6389106e-06)
(0.0025663358 8.1563968e-06 2.5336419e-06)
(0.0025467102 7.9964767e-06 2.4348846e-06)
(0.002527782 7.844027e-06 2.3419787e-06)
(0.0025095101 7.6983373e-06 2.2543624e-06)
(0.0024918566 7.558811e-06 2.1715454e-06)
(0.0024747871 7.4248986e-06 2.0931119e-06)
(0.0024582699 7.2960221e-06 2.0187196e-06)
(0.0024422756 7.1714392e-06 1.9480692e-06)
(0.0024267775 7.0509291e-06 1.8808987e-06)
(0.0024117506 6.9343782e-06 1.8169513e-06)
(0.0023971715 6.8214913e-06 1.7560011e-06)
(0.0023830185 6.7119575e-06 1.6978525e-06)
(0.0023692714 6.6055396e-06 1.6423287e-06)
(0.0023559116 6.5020465e-06 1.5892719e-06)
(0.0023429214 6.4013093e-06 1.5385374e-06)
(0.0023302844 6.3031806e-06 1.4899943e-06)
(0.0023179851 6.2075243e-06 1.4435163e-06)
(0.0023060089 6.1142032e-06 1.3989947e-06)
(0.0022943424 6.0230683e-06 1.3563254e-06)
(0.0022829727 5.9340585e-06 1.315415e-06)
(0.0022718877 5.8471301e-06 1.2761699e-06)
(0.002261076 5.762203e-06 1.238502e-06)
(0.0022505267 5.6791974e-06 1.2023317e-06)
(0.0022402296 5.5980416e-06 1.1675837e-06)
(0.0022301752 5.5186725e-06 1.1341895e-06)
(0.0022203542 5.4410314e-06 1.1020815e-06)
(0.002210758 5.3650617e-06 1.0711995e-06)
(0.0022013784 5.2907174e-06 1.0414841e-06)
(0.0021922076 5.2179486e-06 1.0128813e-06)
(0.0021832381 5.1467099e-06 9.8533741e-07)
(0.0021744628 5.0769578e-06 9.5880395e-07)
(0.0021658752 5.0086506e-06 9.3323049e-07)
(0.0021574688 4.9417436e-06 9.0857444e-07)
(0.0021492375 4.8761977e-06 8.8479102e-07)
(0.0021411756 4.8119657e-06 8.6183944e-07)
(0.0021332776 4.7489985e-06 8.3967871e-07)
(0.0021255383 4.6872378e-06 8.1827112e-07)
(0.0021179527 4.6266209e-06 7.9757742e-07)
(0.0021105161 4.5670675e-06 7.7756043e-07)
(0.0021032242 4.5084827e-06 7.5818368e-07)
(0.0020960727 4.4507552e-06 7.3941098e-07)
(0.0020890577 4.3937743e-06 7.2120235e-07)
(0.0020821756 4.3374545e-06 7.035211e-07)
(0.002075423 4.2818116e-06 6.863212e-07)
(0.0020687967 4.2271335e-06 6.6956101e-07)
(0.0020622937 4.1743535e-06 6.5320328e-07)
(0.002055911 4.1258146e-06 6.3726089e-07)
(0.0020496453 4.086829e-06 6.2198391e-07)
(0.0020434926 4.0687785e-06 6.0874676e-07)
(0.0020374483 4.0948797e-06 6.0452149e-07)
(0.0020315149 4.2094273e-06 6.3987789e-07)
(0.0020256647 4.4797492e-06 7.1688456e-07)
(0.0020144539 4.9057776e-06 2.2695251e-06)
(0.0094902877 9.6726608e-05 0.00022289229)
(0.00917661 0.00016632333 0.00026788105)
(0.0087449456 0.00019969046 0.00025550648)
(0.0082664657 0.00021101604 0.00023762681)
(0.00781215 0.0002109939 0.0002181603)
(0.0073950862 0.0002028236 0.00019646328)
(0.0070087986 0.00018827265 0.00017418493)
(0.006648835 0.00016968865 0.0001528463)
(0.0063142174 0.00014929331 0.00013312182)
(0.0060045996 0.00012875288 0.0001152379)
(0.0057192201 0.00010923291 9.925679e-05)
(0.0054570682 9.1490071e-05 8.514891e-05)
(0.0052170782 7.59234e-05 7.2816211e-05)
(0.0049981259 6.264333e-05 6.2119132e-05)
(0.0047989841 5.1561153e-05 5.2900048e-05)
(0.0046183234 4.2472279e-05 4.4997976e-05)
(0.0044547458 3.5118725e-05 3.8256897e-05)
(0.0043068267 2.9230543e-05 3.2530442e-05)
(0.0041731526 2.4550835e-05 2.768434e-05)
(0.0040523509 2.0849112e-05 2.3597362e-05)
(0.0039431142 1.7926912e-05 2.0161345e-05)
(0.0038442168 1.5618599e-05 1.7280681e-05)
(0.0037545253 1.3789364e-05 1.4871532e-05)
(0.0036730042 1.2331759e-05 1.2860862e-05)
(0.0035987172 1.1161539e-05 1.1185211e-05)
(0.0035308247 1.0213367e-05 9.7889746e-06)
(0.0034685786 9.4380834e-06 8.6250716e-06)
(0.0034113173 8.797129e-06 7.6543151e-06)
(0.0033584589 8.2627224e-06 6.8439401e-06)
(0.0033094933 7.8140825e-06 6.1664549e-06)
(0.0032639753 7.4348237e-06 5.5988453e-06)
(0.0032215172 7.1121287e-06 5.1219271e-06)
(0.0031817817 6.8360981e-06 4.7197276e-06)
(0.0031444758 6.599021e-06 4.3789724e-06)
(0.0031093448 6.3947794e-06 4.0886815e-06)
(0.0030761678 6.2184046e-06 3.8397979e-06)
(0.0030447526 6.0657965e-06 3.6248789e-06)
(0.003014932 5.9335269e-06 3.4378171e-06)
(0.0029865602 5.8186968e-06 3.2736179e-06)
(0.0029595097 5.7188196e-06 3.1282045e-06)
(0.002933669 5.6317498e-06 2.9982613e-06)
(0.0029089401 5.555627e-06 2.8810982e-06)
(0.0028852364 5.4888238e-06 2.774535e-06)
(0.0028624815 5.4299135e-06 2.6768103e-06)
(0.0028406075 5.3776428e-06 2.5865045e-06)
(0.0028195538 5.330922e-06 2.5024715e-06)
(0.0027992664 5.2888073e-06 2.4237896e-06)
(0.0027796963 5.2504808e-06 2.3497101e-06)
(0.0027607998 5.2152402e-06 2.2796373e-06)
(0.002742537 5.1824973e-06 2.2130838e-06)
(0.0027248717 5.1517666e-06 2.1496542e-06)
(0.0027077708 5.1226683e-06 2.0890228e-06)
(0.0026912041 5.0948948e-06 2.0309197e-06)
(0.0026751435 5.0680867e-06 1.9751364e-06)
(0.0026595636 5.0410664e-06 1.9215395e-06)
(0.0026444411 5.0142607e-06 1.8699674e-06)
(0.002629754 4.9880193e-06 1.8202515e-06)
(0.0026154815 4.9620733e-06 1.7722784e-06)
(0.0026016045 4.9361417e-06 1.7259601e-06)
(0.0025881054 4.910087e-06 1.6812145e-06)
(0.0025749674 4.8838338e-06 1.6379639e-06)
(0.002562175 4.8573405e-06 1.5961454e-06)
(0.0025497136 4.8305816e-06 1.5556926e-06)
(0.0025375693 4.8035399e-06 1.5165482e-06)
(0.0025257292 4.7761756e-06 1.4786607e-06)
(0.002514181 4.7483828e-06 1.4419864e-06)
(0.0025029134 4.720276e-06 1.4064833e-06)
(0.0024919154 4.6919143e-06 1.3721021e-06)
(0.0024811765 4.6632889e-06 1.3387979e-06)
(0.002470687 4.6344014e-06 1.3065298e-06)
(0.0024604377 4.6052678e-06 1.2752616e-06)
(0.0024504197 4.5759095e-06 1.2449555e-06)
(0.0024406247 4.5463475e-06 1.2155774e-06)
(0.0024310448 4.5166008e-06 1.1870932e-06)
(0.0024216723 4.4866939e-06 1.1594715e-06)
(0.0024125001 4.4566507e-06 1.1326836e-06)
(0.0024035213 4.4264882e-06 1.1066952e-06)
(0.0023947295 4.3962289e-06 1.0814824e-06)
(0.0023861184 4.3658889e-06 1.0570122e-06)
(0.0023776821 4.3354865e-06 1.0332596e-06)
(0.0023694149 4.3050322e-06 1.0101963e-06)
(0.0023613115 4.2745341e-06 9.8779536e-07)
(0.0023533667 4.2439925e-06 9.6603057e-07)
(0.0023455757 4.2133956e-06 9.4487433e-07)
(0.0023379338 4.1827203e-06 9.242996e-07)
(0.0023304365 4.1519261e-06 9.0427505e-07)
(0.0023230798 4.120954e-06 8.8477192e-07)
(0.0023158598 4.089726e-06 8.6575249e-07)
(0.0023087726 4.0581557e-06 8.4717271e-07)
(0.002301815 4.0261902e-06 8.2898219e-07)
(0.0022949838 3.9938769e-06 8.1110745e-07)
(0.0022882766 3.9615306e-06 7.9346259e-07)
(0.002281691 3.9300774e-06 7.7594388e-07)
(0.0022752261 3.9016901e-06 7.5847765e-07)
(0.002268882 3.8809397e-06 7.4124651e-07)
(0.0022626608 3.8766484e-06 7.257263e-07)
(0.0022565686 3.904305e-06 7.1957957e-07)
(0.0022506189 3.986656e-06 7.5579874e-07)
(0.0022447715 4.1391017e-06 8.4931713e-07)
(0.002233564 4.2832273e-06 2.4122119e-06)
(0.0094843561 6.6886586e-05 0.00022303624)
(0.0091549219 0.00011904886 0.00026838771)
(0.0087072816 0.00014772497 0.00025588053)
(0.0082191888 0.00015892952 0.00023765677)
(0.0077602858 0.00016026049 0.00021787143)
(0.0073412804 0.00015505102 0.00019586613)
(0.0069552494 0.00014481701 0.00017327438)
(0.0065978366 0.00013121474 0.00015165024)
(0.0062677954 0.00011592881 0.00013169211)
(0.0059642872 0.00010028521 0.0001136244)
(0.0056860598 8.5214431e-05 9.7497522e-05)
(0.0054316726 7.1330406e-05 8.3272194e-05)
(0.0051997008 5.8984296e-05 7.0844883e-05)
(0.0049887459 4.8311753e-05 6.0073373e-05)
(0.0047973943 3.9291583e-05 5.079889e-05)
(0.0046242055 3.1804355e-05 4.2859901e-05)
(0.0044677269 2.5679087e-05 3.6099807e-05)
(0.0043265179 2.0725786e-05 3.0371291e-05)
(0.0041991724 1.6756345e-05 2.5538701e-05)
(0.004084339 1.3596839e-05 2.1479083e-05)
(0.0039807371 1.1093754e-05 1.8082324e-05)
(0.0038871692 9.116164e-06 1.5250791e-05)
(0.0038025288 7.5553796e-06 1.2898647e-05)
(0.003725804 6.3231341e-06 1.0950986e-05)
(0.0036560786 5.3488185e-06 9.3426787e-06)
(0.0035925304 4.5751809e-06 8.0166142e-06)
(0.0035344253 3.9621002e-06 6.9239486e-06)
(0.0034811131 3.4726277e-06 6.0250734e-06)
(0.0034320221 3.0815197e-06 5.2862637e-06)
(0.0033866501 2.7702759e-06 4.6792104e-06)
(0.0033445586 2.5236735e-06 4.1805219e-06)
(0.0033053662 2.329585e-06 3.7707538e-06)
(0.0032687419 2.1784973e-06 3.4337456e-06)
(0.0032343982 2.0629049e-06 3.1561119e-06)
(0.0032020863 1.9768091e-06 2.9267978e-06)
(0.0031715907 1.915317e-06 2.7367039e-06)
(0.0031427248 1.8743804e-06 2.5783548e-06)
(0.0031153267 1.8506056e-06 2.4456293e-06)
(0.0030892563 1.8411243e-06 2.333522e-06)
(0.0030643915 1.8434994e-06 2.237967e-06)
(0.003040626 1.8556449e-06 2.1556637e-06)
(0.0030178671 1.8757797e-06 2.0839524e-06)
(0.0029960335 1.9023808e-06 2.0206951e-06)
(0.0029750538 1.9341333e-06 1.9641819e-06)
(0.0029548649 1.9699142e-06 1.9130523e-06)
(0.0029354109 2.0087602e-06 1.8662269e-06)
(0.0029166424 2.0498563e-06 1.8228525e-06)
(0.0028985148 2.0925072e-06 1.7822578e-06)
(0.0028809886 2.1361364e-06 1.7439152e-06)
(0.0028640277 2.1802706e-06 1.7074099e-06)
(0.0028476 2.2245516e-06 1.6724136e-06)
(0.0028316758 2.26876e-06 1.6386559e-06)
(0.0028162284 2.3128928e-06 1.6058713e-06)
(0.0028012324 2.3570792e-06 1.5738221e-06)
(0.0027866658 2.3978719e-06 1.5431885e-06)
(0.0027725089 2.4362355e-06 1.5136867e-06)
(0.0027587418 2.4734406e-06 1.4848875e-06)
(0.002745346 2.5095342e-06 1.4567004e-06)
(0.002732305 2.5443508e-06 1.4291169e-06)
(0.0027196032 2.5777741e-06 1.4021111e-06)
(0.0027072261 2.6097256e-06 1.3756634e-06)
(0.0026951602 2.6401668e-06 1.3497558e-06)
(0.0026833928 2.6690891e-06 1.3243751e-06)
(0.0026719116 2.6965041e-06 1.299509e-06)
(0.0026607054 2.7223728e-06 1.2751527e-06)
(0.0026497635 2.7463558e-06 1.2513144e-06)
(0.002639076 2.7689087e-06 1.2279785e-06)
(0.0026286333 2.7901455e-06 1.2051292e-06)
(0.0026184262 2.8099934e-06 1.1827617e-06)
(0.0026084461 2.828432e-06 1.1608707e-06)
(0.0025986849 2.8454943e-06 1.139449e-06)
(0.0025891348 2.8612183e-06 1.1184909e-06)
(0.0025797885 2.8756496e-06 1.0979866e-06)
(0.002570639 2.8888298e-06 1.077928e-06)
(0.0025616795 2.900805e-06 1.0583084e-06)
(0.0025529038 2.9116198e-06 1.0391192e-06)
(0.0025443058 2.9213123e-06 1.0203491e-06)
(0.0025358796 2.9299303e-06 1.0019901e-06)
(0.0025276198 2.9375055e-06 9.8403179e-07)
(0.002519521 2.9440787e-06 9.6646441e-07)
(0.0025115783 2.9496813e-06 9.4927892e-07)
(0.0025037869 2.9543366e-06 9.3246205e-07)
(0.0024961421 2.9580676e-06 9.1600083e-07)
(0.0024886396 2.9608812e-06 8.9988099e-07)
(0.0024812752 2.9627727e-06 8.8408524e-07)
(0.002474045 2.9637209e-06 8.685946e-07)
(0.0024669452 2.9636865e-06 8.5338174e-07)
(0.0024599723 2.9626118e-06 8.3841363e-07)
(0.0024531231 2.9604293e-06 8.2364297e-07)
(0.0024463945 2.9570953e-06 8.0900406e-07)
(0.0024397839 2.9526503e-06 7.9439804e-07)
(0.0024332895 2.9473492e-06 7.7969358e-07)
(0.0024269099 2.9419116e-06 7.6470938e-07)
(0.0024206457 2.9379198e-06 7.4925939e-07)
(0.0024144993 2.938418e-06 7.3336403e-07)
(0.0024084767 2.9484964e-06 7.1826471e-07)
(0.0024025877 2.9751254e-06 7.1113285e-07)
(0.002396846 3.0234623e-06 7.433128e-07)
(0.0023911946 3.0808315e-06 8.3046597e-07)
(0.0023803644 3.0574276e-06 2.2999442e-06)
(0.0094810492 4.4090136e-05 0.00022308885)
(0.0091422796 7.9975483e-05 0.00026874495)
(0.0086839084 0.00010160921 0.00025628771)
(0.0081880903 0.00011101591 0.00023793456)
(0.0077246858 0.00011275117 0.00021798622)
(0.0073029895 0.00010953687 0.00019578738)
(0.0069155191 0.00010266029 0.00017296032)
(0.0065579578 9.3267234e-05 0.0001510852)
(0.006229001 8.2539592e-05 0.00013089045)
(0.005927585 7.1446831e-05 0.00011261412)
(0.0056522063 6.0673358e-05 9.6309238e-05)
(0.0054012005 5.0670805e-05 8.1936267e-05)
(0.0051729477 4.1706607e-05 6.9390831e-05)
(0.004965887 3.3898114e-05 5.8529097e-05)
(0.0047784814 2.7249953e-05 4.9189878e-05)
(0.0046092054 2.1693073e-05 4.1208773e-05)
(0.0044565535 1.7117438e-05 3.4426143e-05)
(0.0043190553 1.3395521e-05 2.8691658e-05)
(0.0041952917 1.0397813e-05 2.3866804e-05)
(0.0040839086 8.0023323e-06 1.9826011e-05)
(0.0039836293 6.0997711e-06 1.6456861e-05)
(0.0038932634 4.5956627e-06 1.3659716e-05)
(0.0038117126 3.4106732e-06 1.1347012e-05)
(0.0037379734 2.4799296e-06 9.4422914e-06)
(0.0036711359 1.7515118e-06 7.8790895e-06)
(0.0036103859 1.1749061e-06 6.6010318e-06)
(0.0035549935 7.2234162e-07 5.5561199e-06)
(0.0035043108 3.7342643e-07 4.7060699e-06)
(0.0034577717 1.0569588e-07 4.0163446e-06)
(0.0034148763 -9.9091124e-08 3.4574142e-06)
(0.0033751872 -2.5333639e-07 3.0054945e-06)
(0.0033383243 -3.6640137e-07 2.6409741e-06)
(0.0033039576 -4.4577943e-07 2.3475733e-06)
(0.0032718009 -4.9748347e-07 2.1118261e-06)
(0.0032416065 -5.2634574e-07 1.9226408e-06)
(0.0032131599 -5.3631025e-07 1.7709151e-06)
(0.0031862758 -5.3063941e-07 1.6492025e-06)
(0.0031607936 -5.1206236e-07 1.5514417e-06)
(0.0031365743 -4.8287224e-07 1.4727095e-06)
(0.0031134976 -4.4500733e-07 1.4090325e-06)
(0.0030914586 -4.0011245e-07 1.3572053e-06)
(0.0030703663 -3.4958001e-07 1.3146568e-06)
(0.0030501409 -2.9459474e-07 1.2793318e-06)
(0.0030307129 -2.3616995e-07 1.2495913e-06)
(0.0030120207 -1.7516608e-07 1.2241397e-06)
(0.0029940105 -1.1232327e-07 1.2019534e-06)
(0.0029766343 -4.8269656e-08 1.1822232e-06)
(0.0029598495 1.644765e-08 1.1643212e-06)
(0.0029436181 8.1355403e-08 1.1477516e-06)
(0.002927906 1.4602476e-07 1.1321235e-06)
(0.0029126825 2.1005845e-07 1.1171175e-06)
(0.0028979201 2.7304929e-07 1.1024398e-06)
(0.0028835935 3.3454156e-07 1.0876608e-06)
(0.0028696773 3.9432394e-07 1.0722024e-06)
(0.0028561514 4.5704849e-07 1.0590083e-06)
(0.0028429997 5.2059968e-07 1.0472581e-06)
(0.0028302035 5.8225336e-07 1.0356074e-06)
(0.0028177449 6.4163887e-07 1.0238004e-06)
(0.0028056084 6.9902058e-07 1.0118737e-06)
(0.0027937799 7.5456221e-07 9.9986861e-07)
(0.0027822461 8.083514e-07 9.8781116e-07)
(0.0027709946 8.6046957e-07 9.7571846e-07)
(0.0027600137 9.1102561e-07 9.6360311e-07)
(0.0027492926 9.6019402e-07 9.5144681e-07)
(0.0027388207 1.0080051e-06 9.392664e-07)
(0.0027285887 1.0528504e-06 9.2746485e-07)
(0.0027185878 1.0958673e-06 9.1583048e-07)
(0.0027088089 1.1374995e-06 9.0425374e-07)
(0.0026992438 1.1777684e-06 8.9275913e-07)
(0.0026898847 1.2166573e-06 8.8136719e-07)
(0.0026807244 1.2541704e-06 8.7007996e-07)
(0.0026717559 1.2903139e-06 8.5890729e-07)
(0.0026629726 1.325107e-06 8.4785304e-07)
(0.0026543682 1.3585732e-06 8.3692258e-07)
(0.0026459367 1.3907411e-06 8.261213e-07)
(0.0026376723 1.4216364e-06 8.1545351e-07)
(0.0026295698 1.4512896e-06 8.0491978e-07)
(0.0026216238 1.4797325e-06 7.9452217e-07)
(0.0026138294 1.5069904e-06 7.8426361e-07)
(0.002606182 1.5330924e-06 7.741408e-07)
(0.0025986769 1.5580646e-06 7.6415161e-07)
(0.0025913099 1.5819208e-06 7.5429518e-07)
(0.0025840769 1.6046815e-06 7.4456438e-07)
(0.0025769739 1.626349e-06 7.3495231e-07)