/*--------------------------------*- C++ -*----------------------------------*\
  =========                 |
  \\      /  F ield         | OpenFOAM: The Open Source CFD Toolbox
   \\    /   O peration     | Website:  https://openfoam.org
    \\  /    A nd           | Version:  7
     \\/     M anipulation  |
\*---------------------------------------------------------------------------*/
FoamFile
{
    version     2.0;
    format      ascii;
    class       surfaceScalarField;
    location    "600/water";
    object      phi;
}
// * * * * * * * * * * * * * * * * * * * * * * * * * * * * * * * * * * * * * //

dimensions      [1 0 -1 0 0 0 0];

internalField   nonuniform List<scalar> 
156660
(
9.9057239e-05
6.0010402e-06
6.0528092e-06
8.6847498e-05
6.0555113e-06
6.1542307e-06
7.5687891e-05
5.5111362e-06
5.6484701e-06
6.5441704e-05
5.0404181e-06
5.2057689e-06
5.6267661e-05
4.4956436e-06
4.6783991e-06
4.8318019e-05
3.8797648e-06
4.0698777e-06
4.1624776e-05
3.2524448e-06
3.4407981e-06
3.6124897e-05
2.660462e-06
2.8394169e-06
3.1692235e-05
2.1345127e-06
2.2981489e-06
2.8162841e-05
1.6926975e-06
1.8366964e-06
2.5361437e-05
1.3399933e-06
1.4614113e-06
2.3124664e-05
1.0698476e-06
1.1669256e-06
2.1315127e-05
8.6875417e-07
9.4078225e-07
1.9825714e-05
7.2110062e-07
7.6831272e-07
1.8577278e-05
6.1248245e-07
6.3595303e-07
1.7513255e-05
5.3125219e-07
5.3277148e-07
1.6593744e-05
4.6879725e-07
4.5071348e-07
1.5790433e-05
4.1913717e-07
3.8417384e-07
1.5082784e-05
3.7829068e-07
3.2935848e-07
1.4455417e-05
3.4367124e-07
2.8369567e-07
1.3896409e-05
3.1361407e-07
2.4539333e-07
1.339622e-05
2.8704451e-07
2.1314453e-07
1.2947015e-05
2.6326034e-07
1.859451e-07
1.2542237e-05
2.4179367e-07
1.6298459e-07
1.2176318e-05
2.223221e-07
1.4359688e-07
1.1844484e-05
2.0461482e-07
1.272188e-07
1.1542609e-05
1.8849495e-07
1.1337973e-07
1.1267116e-05
1.7381574e-07
1.0167794e-07
1.1014892e-05
1.6046267e-07
9.1760863e-08
1.0783252e-05
1.4833966e-07
8.3300639e-08
1.0569851e-05
1.3734902e-07
7.6052151e-08
1.0372614e-05
1.273886e-07
6.9848313e-08
1.0189731e-05
1.1836808e-07
6.4514838e-08
1.001963e-05
1.1020447e-07
5.9896628e-08
9.8609388e-06
1.0281923e-07
5.587163e-08
9.7124595e-06
9.6137965e-08
5.234135e-08
9.5731439e-06
9.0091193e-08
4.9224334e-08
9.4420759e-06
8.4614435e-08
4.6453553e-08
9.3184531e-06
7.9648649e-08
4.3974117e-08
9.2015724e-06
7.513971e-08
4.1741076e-08
9.0908166e-06
7.103815e-08
3.9717557e-08
8.9856432e-06
6.730113e-08
3.7872329e-08
8.8855708e-06
6.389428e-08
3.6178175e-08
8.7901757e-06
6.0780101e-08
3.4614931e-08
8.6990829e-06
5.7926174e-08
3.3166634e-08
8.6119591e-06
5.5303737e-08
3.1820134e-08
8.5285072e-06
5.2887435e-08
3.0564404e-08
8.4484618e-06
5.065505e-08
2.9390259e-08
8.3715848e-06
4.8587045e-08
2.8290048e-08
8.2976614e-06
4.6666179e-08
2.7257236e-08
8.2264975e-06
4.4877473e-08
2.6286413e-08
8.1579202e-06
4.3208795e-08
2.5368509e-08
8.0917731e-06
4.1649027e-08
2.4498047e-08
8.0279108e-06
4.018699e-08
2.3675355e-08
7.9662006e-06
3.8812666e-08
2.289752e-08
7.9065219e-06
3.7518395e-08
2.2160212e-08
7.8487639e-06
3.6297857e-08
2.1460142e-08
7.7928242e-06
3.5145141e-08
2.0794578e-08
7.7386083e-06
3.4054657e-08
2.0161139e-08
7.6860293e-06
3.3021349e-08
1.9557685e-08
7.6350062e-06
3.2040794e-08
1.8982263e-08
7.5854641e-06
3.1109055e-08
1.8433058e-08
7.537333e-06
3.022259e-08
1.7908491e-08
7.4905478e-06
2.9378237e-08
1.7407019e-08
7.4450476e-06
2.8573018e-08
1.6927187e-08
7.4007756e-06
2.7804229e-08
1.6467818e-08
7.3576783e-06
2.7069604e-08
1.6027677e-08
7.3157057e-06
2.6367049e-08
1.5605668e-08
7.2748103e-06
2.569462e-08
1.5200685e-08
7.2349479e-06
2.5050557e-08
1.4811823e-08
7.1960766e-06
2.4433079e-08
1.4438186e-08
7.158157e-06
2.3840656e-08
1.4078946e-08
7.1211518e-06
2.3271901e-08
1.3733288e-08
7.0850258e-06
2.2725499e-08
1.3400518e-08
7.0497456e-06
2.2200192e-08
1.3079966e-08
7.0152798e-06
2.1694941e-08
1.2770913e-08
6.9815985e-06
2.1208596e-08
1.2472767e-08
6.9486733e-06
2.0740238e-08
1.2184938e-08
6.9164775e-06
2.0288972e-08
1.1906816e-08
6.8849857e-06
1.9853959e-08
1.1637837e-08
6.8541739e-06
1.9434389e-08
1.1377475e-08
6.8240193e-06
1.9029473e-08
1.1125116e-08
6.7945006e-06
1.8638496e-08
1.0880224e-08
6.7655975e-06
1.8260773e-08
1.0642306e-08
6.7372912e-06
1.7895525e-08
1.041075e-08
6.709564e-06
1.754209e-08
1.0185092e-08
6.6823995e-06
1.7199643e-08
9.9648612e-09
6.6557824e-06
1.6867257e-08
9.7498155e-09
6.6296983e-06
1.654414e-08
9.5399849e-09
6.6041331e-06
1.6229258e-08
9.3360044e-09
6.5790714e-06
1.5921966e-08
9.1396806e-09
6.554494e-06
1.5622355e-08
8.9550804e-09
6.5303708e-06
1.533256e-08
8.7906535e-09
6.5066467e-06
1.5060484e-08
8.6635947e-09
6.4832094e-06
1.4827813e-08
8.6095126e-09
6.4598103e-06
1.4693075e-08
8.7060194e-09
6.4358388e-06
1.4826402e-08
9.1451584e-09
6.4096303e-06
1.5741761e-08
1.0466781e-08
6.3782855e-06
1.8026549e-08
1.3318211e-08
3.2300222e-08
2.7923533e-08
0.00010646494
4.1872385e-06
6.4599816e-06
0.0001002019
5.695418e-06
6.6231353e-06
9.3659588e-05
5.7790389e-06
6.2744098e-06
8.7011589e-05
5.6514782e-06
6.0369387e-06
8.0422927e-05
5.366912e-06
5.7173941e-06
7.4094022e-05
4.9022832e-06
5.3063862e-06
6.8167026e-05
4.3278136e-06
4.8516272e-06
6.2722565e-05
3.717891e-06
4.387032e-06
5.7799049e-05
3.1243144e-06
3.9337144e-06
5.3403345e-05
2.5820689e-06
3.5063329e-06
4.9517402e-05
2.1121062e-06
3.1138299e-06
4.6105482e-05
1.7220197e-06
2.7597474e-06
4.3121558e-05
1.4089355e-06
2.4437429e-06
4.0515558e-05
1.1637552e-06
2.163346e-06
3.8237948e-05
9.7485848e-07
1.9152336e-06
3.6242683e-05
8.3055975e-07
1.6959573e-06
3.4488759e-05
7.2043695e-07
1.5022849e-06
3.2940716e-05
6.3586294e-07
1.3313172e-06
3.1568463e-05
5.7005004e-07
1.1804931e-06
3.0346733e-05
5.1784901e-07
1.0475522e-06
2.9254398e-05
4.7545954e-07
9.3049033e-07
2.8273782e-05
4.4013954e-07
8.2752024e-07
2.7390054e-05
4.099489e-07
7.3704011e-07
2.6590699e-05
3.8353957e-07
6.5760856e-07
2.5865102e-05
3.5998891e-07
5.8793071e-07
2.5204197e-05
3.386763e-07
5.268426e-07
2.4600205e-05
3.1918358e-07
4.7330348e-07
2.4046429e-05
3.0120189e-07
4.2639018e-07
2.3537073e-05
2.8455203e-07
3.8526718e-07
2.3067119e-05
2.6911098e-07
3.4918241e-07
2.2632208e-05
2.5478162e-07
3.1747786e-07
2.2228528e-05
2.4147381e-07
2.8959534e-07
2.1852744e-05
2.2911072e-07
2.6504124e-07
2.1501947e-05
2.1762893e-07
2.4337255e-07
2.1173591e-05
2.0696954e-07
2.2420569e-07
2.0865444e-05
1.9707569e-07
2.0720863e-07
2.0575549e-05
1.8789255e-07
1.9209396e-07
2.0302183e-05
1.7936723e-07
1.7861341e-07
2.0043829e-05
1.714491e-07
1.6655322e-07
1.979915e-05
1.6408981e-07
1.5572942e-07
1.956696e-05
1.5724382e-07
1.4598404e-07
1.934621e-05
1.5086899e-07
1.3718219e-07
1.9135969e-05
1.4492652e-07
1.2920882e-07
1.8935407e-05
1.3937907e-07
1.2196307e-07
1.8743783e-05
1.3419232e-07
1.1535761e-07
1.8560435e-05
1.2933511e-07
1.0931725e-07
1.8384766e-05
1.2477907e-07
1.0377715e-07
1.8216241e-05
1.2049852e-07
9.8681283e-08
1.8054377e-05
1.1647015e-07
9.3981345e-08
1.7898734e-05
1.1267294e-07
8.9635422e-08
1.7748917e-05
1.090882e-07
8.560697e-08
1.7604563e-05
1.0570004e-07
8.1862389e-08
1.7465345e-05
1.0249336e-07
7.8373308e-08
1.7330962e-05
9.9453005e-08
7.511698e-08
1.7201138e-05
9.6564422e-08
7.2072705e-08
1.7075619e-05
9.381666e-08
6.9221101e-08
1.695417e-05
9.1201133e-08
6.6545111e-08
1.6836577e-05
8.8709135e-08
6.402954e-08
1.6722638e-05
8.6331966e-08
6.1661079e-08
1.661217e-05
8.4061769e-08
5.9427715e-08
1.6505001e-05
8.1891547e-08
5.7318836e-08
1.640097e-05
7.9814927e-08
5.532483e-08
1.6299929e-05
7.7826137e-08
5.3437103e-08
1.620174e-05
7.5919854e-08
5.1647943e-08
1.6106272e-05
7.4091033e-08
4.9950126e-08
1.6013404e-05
7.233498e-08
4.8337405e-08
1.5923022e-05
7.0647729e-08
4.6803855e-08
1.5835019e-05
6.9025728e-08
4.5344292e-08
1.5749294e-05
6.7465538e-08
4.3953709e-08
1.5665753e-05
6.5963763e-08
4.2627704e-08
1.5584307e-05
6.4517332e-08
4.1362171e-08
1.5504871e-05
6.3123443e-08
4.015335e-08
1.5427365e-05
6.177932e-08
3.8997796e-08
1.5351716e-05
6.0482542e-08
3.7892249e-08
1.5277852e-05
5.9230814e-08
3.6833861e-08
1.5205705e-05
5.8021997e-08
3.5819743e-08
1.5135212e-05
5.6853975e-08
3.4847365e-08
1.5066313e-05
5.5724993e-08
3.3914356e-08
1.499895e-05
5.4633139e-08
3.30184e-08
1.493307e-05
5.3576721e-08
3.2157443e-08
1.4868621e-05
5.2554159e-08
3.1329436e-08
1.4805554e-05
5.1563936e-08
3.0532431e-08
1.4743823e-05
5.0604475e-08
2.9764679e-08
1.4683385e-05
4.9674267e-08
2.9024377e-08
1.4624199e-05
4.8771809e-08
2.8309851e-08
1.4566226e-05
4.7895444e-08
2.7619565e-08
1.4509431e-05
4.7043479e-08
2.6951979e-08
1.4453778e-05
4.6214106e-08
2.6305805e-08
1.4399237e-05
4.5405388e-08
2.5679878e-08
1.4345777e-05
4.4615711e-08
2.5073742e-08
1.4293367e-05
4.3844266e-08
2.44877e-08
1.4241972e-05
4.3092871e-08
2.3923758e-08
1.4191548e-05
4.2369904e-08
2.3387137e-08
1.4142019e-05
4.1699326e-08
2.2889628e-08
1.4093249e-05
4.1141611e-08
2.2456632e-08
1.4044951e-05
4.0844657e-08
2.2146558e-08
1.3996485e-05
4.116919e-08
2.2123029e-08
1.3946229e-05
4.3012313e-08
2.2985414e-08
1.389015e-05
4.8540252e-08
2.5565817e-08
6.3281553e-08
5.0000839e-08
0.00010603565
2.7876425e-06
6.4750379e-06
0.00010074799
4.4145413e-06
6.5685292e-06
9.5493515e-05
4.8594028e-06
6.1741158e-06
9.0256432e-05
4.930369e-06
5.9581921e-06
8.5101366e-05
4.8311767e-06
5.6908011e-06
8.0102875e-05
4.5561761e-06
5.3445981e-06
7.5322251e-05
4.1469521e-06
4.9614853e-06
7.0803266e-05
3.6678925e-06
4.5689837e-06
6.6576264e-05
3.1701903e-06
4.1811255e-06
6.2660725e-05
2.6900109e-06
3.8075976e-06
5.9065443e-05
2.2519318e-06
3.4554566e-06
5.5788936e-05
1.8697304e-06
3.1287957e-06
5.2820978e-05
1.5477473e-06
2.8291458e-06
5.014479e-05
1.2836302e-06
2.5563139e-06
4.7739304e-05
1.07123e-06
2.3091141e-06
4.5581183e-05
9.0281507e-07
2.0858661e-06
4.3646423e-05
7.7048783e-07
1.884709e-06
4.1911533e-05
6.6697373e-07
1.7037793e-06
4.0354306e-05
5.8598198e-07
1.541295e-06
3.8954268e-05
5.2230221e-07
1.3955849e-06
3.769288e-05
4.7175604e-07
1.265091e-06
3.6553576e-05
4.3107987e-07
1.1483634e-06
3.552169e-05
3.9778209e-07
1.0440533e-06
3.4584322e-05
3.6999885e-07
9.509083e-07
3.3730181e-05
3.4635984e-07
8.6777016e-07
3.2949411e-05
3.2587763e-07
7.9356874e-07
3.2233419e-05
3.0784049e-07
7.273349e-07
3.1574711e-05
2.9172985e-07
6.6818105e-07
3.0966769e-05
2.7719264e-07
6.1530127e-07
3.0403928e-05
2.6398096e-07
5.679702e-07
2.9881258e-05
2.5190843e-07
5.2554315e-07
2.9394455e-05
2.4082711e-07
4.8745001e-07
2.8939761e-05
2.306216e-07
4.5318328e-07
2.8513895e-05
2.2120154e-07
4.2229388e-07
2.8113985e-05
2.1249195e-07
3.9438674e-07
2.7737518e-05
2.04428e-07
3.691149e-07
2.7382285e-05
1.9695195e-07
3.4617384e-07
2.7046344e-05
1.900118e-07
3.252968e-07
2.6727982e-05
1.8355994e-07
3.0625045e-07
2.6425689e-05
1.7755275e-07
2.8883088e-07
2.6138123e-05
1.7195005e-07
2.7285984e-07
2.5864095e-05
1.6671517e-07
2.5818183e-07
2.5602546e-05
1.6181455e-07
2.446609e-07
2.535253e-05
1.5721708e-07
2.3217766e-07
2.51132e-05
1.528944e-07
2.2062725e-07
2.4883797e-05
1.4882094e-07
2.099177e-07
2.4663634e-05
1.4497368e-07
1.9996813e-07
2.4452094e-05
1.4133183e-07
1.9070703e-07
2.4248615e-05
1.3787698e-07
1.8207152e-07
2.405269e-05
1.3459269e-07
1.7400571e-07
2.3863854e-05
1.3146466e-07
1.6645988e-07
2.3681684e-05
1.284806e-07
1.5938923e-07
2.3505794e-05
1.256292e-07
1.5275412e-07
2.3335829e-05
1.228987e-07
1.4651967e-07
2.3171462e-05
1.2027638e-07
1.4065459e-07
2.3012394e-05
1.1775478e-07
1.3513024e-07
2.2858345e-05
1.1532973e-07
1.2992043e-07
2.2709057e-05
1.1299535e-07
1.2500174e-07
2.2564291e-05
1.1074518e-07
1.203529e-07
2.2423824e-05
1.0857349e-07
1.1595462e-07
2.2287451e-05
1.0647552e-07
1.1178924e-07
2.2154978e-05
1.0444704e-07
1.078408e-07
2.2026226e-05
1.0248421e-07
1.0409461e-07
2.1901025e-05
1.0058353e-07
1.0053719e-07
2.1779218e-05
9.874153e-08
9.7156148e-08
2.1660658e-05
9.695491e-08
9.3940301e-08
2.1545205e-05
9.5221274e-08
9.0879055e-08
2.1432729e-05
9.3538801e-08
8.7962803e-08
2.1323107e-05
9.1905325e-08
8.5182607e-08
2.1216222e-05
9.0318507e-08
8.253019e-08
2.1111965e-05
8.8776412e-08
7.9997906e-08
2.1010233e-05
8.7277128e-08
7.7578645e-08
2.0910927e-05
8.5818965e-08
7.526585e-08
2.0813956e-05
8.4400311e-08
7.3053396e-08
2.0719232e-05
8.3019685e-08
7.0935654e-08
2.0626671e-05
8.1675611e-08
6.890723e-08
2.0536195e-05
8.0366812e-08
6.6963138e-08
2.0447729e-05
7.9091961e-08
6.5098769e-08
2.0361203e-05
7.7849828e-08
6.3309744e-08
2.0276548e-05
7.6639214e-08
6.159206e-08
2.0193702e-05
7.5458987e-08
5.9941731e-08
2.0112602e-05
7.4307941e-08
5.8355231e-08
2.0033193e-05
7.3184904e-08
5.6829056e-08
1.9955419e-05
7.2088604e-08
5.5359959e-08
1.9879228e-05
7.1017627e-08
5.394484e-08
1.9804572e-05
6.9970427e-08
5.2580726e-08
1.9731406e-05
6.8945238e-08
5.1264819e-08
1.9659685e-05
6.7940105e-08
4.9994409e-08
1.9589371e-05
6.6953019e-08
4.8767043e-08
1.9520423e-05
6.5982367e-08
4.7580555e-08
1.9452807e-05
6.502803e-08
4.6433107e-08
1.9386482e-05
6.409412e-08
4.5323719e-08
1.9321404e-05
6.3194683e-08
4.425307e-08
1.9257511e-05
6.2366344e-08
4.3225207e-08
1.9194705e-05
6.1695205e-08
4.2253125e-08
1.9132798e-05
6.1374084e-08
4.1377396e-08
1.9071394e-05
6.1822408e-08
4.0750665e-08
1.9009424e-05
6.3924735e-08
4.1057584e-08
1.8944661e-05
6.9304686e-08
4.399885e-08
7.9170919e-08
7.4661523e-08
0.0001054937
1.9169871e-06
6.4880407e-06
0.00010005365
3.2729596e-06
6.5816334e-06
9.4926077e-05
3.8288995e-06
6.1580776e-06
8.9946373e-05
3.9838109e-06
5.9262629e-06
8.5163276e-05
3.9595077e-06
5.6547657e-06
8.0619137e-05
3.7899369e-06
5.3103784e-06
7.6329462e-05
3.5015547e-06
4.9350725e-06
7.230016e-05
3.1412013e-06
4.5559928e-06
6.8534206e-05
2.7514802e-06
4.1846641e-06
6.5032983e-05
2.3633493e-06
3.8278852e-06
6.1795789e-05
1.9984143e-06
3.490711e-06
5.8818843e-05
1.6703759e-06
3.176301e-06
5.6094717e-05
1.3858295e-06
2.886043e-06
5.3612488e-05
1.1457945e-06
2.6200649e-06
5.1358373e-05
9.4764118e-07
2.3777043e-06
4.9316593e-05
7.8676784e-07
2.1578272e-06
4.7470246e-05
6.5779547e-07
1.9590391e-06
4.5802069e-05
5.5532544e-07
1.7798252e-06
4.4295042e-05
4.7437117e-07
1.6186378e-06
4.293283e-05
4.1056669e-07
1.473948e-06
4.1700078e-05
3.6023237e-07
1.3442759e-06
4.0582591e-05
3.2035744e-07
1.2282094e-06
3.956742e-05
2.8853734e-07
1.1244154e-06
3.8642881e-05
2.6289065e-07
1.0316467e-06
3.7798527e-05
2.4196984e-07
9.4874401e-07
3.7025076e-05
2.2467707e-07
8.7465172e-07
3.6314324e-05
2.1018903e-07
8.0840411e-07
3.5659057e-05
1.9788606e-07
7.491104e-07
3.5052961e-05
1.8731583e-07
6.9597282e-07
3.4490519e-05
1.7814871e-07
6.4827378e-07
3.3966922e-05
1.7013169e-07
6.0537436e-07
3.3477973e-05
1.6306729e-07
5.6670867e-07
3.3020016e-05
1.5680298e-07
5.3177541e-07
3.2589865e-05
1.5122055e-07
5.0013239e-07
3.218474e-05
1.4622565e-07
4.7139136e-07
3.1802215e-05
1.4174073e-07
4.452123e-07
3.1440168e-05
1.3770094e-07
4.2129807e-07
3.1096739e-05
1.3405095e-07
3.9938922e-07
3.0770297e-05
1.3074293e-07
3.7925955e-07
3.0459402e-05
1.2773519e-07
3.6071197e-07
3.0162787e-05
1.2499093e-07
3.4357481e-07
2.9879325e-05
1.2247786e-07
3.2769849e-07
2.960802e-05
1.2016733e-07
3.1295273e-07
2.934798e-05
1.1803382e-07
2.9922356e-07
2.9098408e-05
1.1605462e-07
2.864114e-07
2.885859e-05
1.1420982e-07
2.7442904e-07
2.8627882e-05
1.124819e-07
2.632e-07
2.8405701e-05
1.1085559e-07
2.5265686e-07
2.819152e-05
1.0931757e-07
2.4274024e-07
2.7984859e-05
1.0785647e-07
2.3339755e-07
2.7785279e-05
1.0646278e-07
2.2458209e-07
2.7592378e-05
1.0512872e-07
2.1625213e-07
2.740579e-05
1.0384738e-07
2.0837036e-07
2.7225174e-05
1.0261117e-07
2.0090361e-07
2.705022e-05
1.0140747e-07
1.9382258e-07
2.6880641e-05
1.0023385e-07
1.8710044e-07
2.6716166e-05
9.9092353e-08
1.8071222e-07
2.6556546e-05
9.7980022e-08
1.7463559e-07
2.6401548e-05
9.689256e-08
1.6885015e-07
2.6250957e-05
9.5827107e-08
1.6333741e-07
2.610457e-05
9.4781737e-08
1.5808046e-07
2.5962199e-05
9.3754755e-08
1.5306363e-07
2.5823666e-05
9.2744912e-08
1.4827261e-07
2.5688804e-05
9.1751031e-08
1.4369413e-07
2.5557458e-05
9.0771773e-08
1.3931597e-07
2.5429481e-05
8.9805176e-08
1.3512693e-07
2.5304734e-05
8.8851451e-08
1.3111645e-07
2.5183087e-05
8.7911227e-08
1.2727466e-07
2.5064416e-05
8.6983931e-08
1.2359243e-07
2.4948604e-05
8.6068896e-08
1.200612e-07
2.4835542e-05
8.51658e-08
1.16673e-07
2.4725124e-05
8.4274305e-08
1.1342044e-07
2.4617252e-05
8.3394271e-08
1.1029657e-07
2.4511832e-05
8.2525454e-08
1.0729478e-07
2.4408775e-05
8.1667757e-08
1.04409e-07
2.4307997e-05
8.0820976e-08
1.0163344e-07
2.4209416e-05
7.9985017e-08
9.8962668e-08
2.4112956e-05
7.9159749e-08
9.6391552e-08
2.4018546e-05
7.8345032e-08
9.3915285e-08
2.3926115e-05
7.754072e-08
9.1529297e-08
2.3835598e-05
7.6746564e-08
8.9229267e-08
2.3746933e-05
7.5962335e-08
8.7011058e-08
2.366006e-05
7.518763e-08
8.4870704e-08
2.3574922e-05
7.4421974e-08
8.280456e-08
2.3491466e-05
7.3664615e-08
8.0808943e-08
2.3409641e-05
7.2914614e-08
7.8880353e-08
2.33294e-05
7.2170692e-08
7.7015519e-08
2.3250698e-05
7.1431321e-08
7.5211018e-08
2.3173493e-05
7.0694884e-08
7.346366e-08
2.3097745e-05
6.9960222e-08
7.1770075e-08
2.3023418e-05
6.922799e-08
7.0127021e-08
2.2950477e-05
6.8503483e-08
6.8531156e-08
2.2878889e-05
6.7802858e-08
6.6979717e-08
2.2808619e-05
6.7165049e-08
6.5471605e-08
2.2739625e-05
6.6675253e-08
6.4013356e-08
2.267185e-05
6.6507067e-08
6.2642283e-08
2.2605149e-05
6.6990741e-08
6.153237e-08
2.2538888e-05
6.8686009e-08
6.149988e-08
2.2471121e-05
7.2226962e-08
6.4845119e-08
7.6722858e-08
9.8461313e-08
0.0001051979
1.3340885e-06
6.4961222e-06
9.9496561e-05
2.3731022e-06
6.6011947e-06
9.4262459e-05
2.9019223e-06
6.1610799e-06
8.9251186e-05
3.0856641e-06
5.9094196e-06
8.4493497e-05
3.0947347e-06
5.6224614e-06
8.0033635e-05
2.9846656e-06
5.265134e-06
7.5876907e-05
2.7790155e-06
4.8792667e-06
7.2014635e-05
2.5106844e-06
4.4927895e-06
6.8436293e-05
2.2128728e-06
4.116949e-06
6.5131387e-05
1.9107259e-06
3.7575291e-06
6.208941e-05
1.621732e-06
3.4186596e-06
5.9299432e-05
1.3573877e-06
3.1029661e-06
5.6749589e-05
1.1240344e-06
2.8116387e-06
5.4426788e-05
9.2377947e-07
2.5448158e-06
5.2316754e-05
7.5572799e-07
2.3019466e-06
5.0404313e-05
6.1717852e-07
2.0820302e-06
4.8673788e-05
5.0454349e-07
1.8837772e-06
4.7109414e-05
4.1397178e-07
1.7057274e-06
4.5695713e-05
3.4173647e-07
1.5463363e-06
4.4417792e-05
2.8445145e-07
1.4040359e-06
4.3261575e-05
2.3917115e-07
1.277278e-06
4.2213952e-05
2.0341505e-07
1.1645652e-06
4.1262871e-05
1.7514744e-07
1.0644719e-06
4.039737e-05
1.5273236e-07
9.7565901e-07
3.9607583e-05
1.348753e-07
8.9688145e-07
3.8884688e-05
1.205557e-07
8.2701643e-07
3.8220848e-05
1.0901091e-07
7.6501856e-07
3.7609155e-05
9.9633843e-08
7.0994487e-07
3.7043542e-05
9.1977446e-08
6.6095088e-07
3.6518702e-05
8.5705854e-08
6.172829e-07
3.6030009e-05
8.0552374e-08
5.7827309e-07
3.5573433e-05
7.630829e-08
5.4333413e-07
3.5145475e-05
7.2811252e-08
5.1195028e-07
3.4743091e-05
6.9934123e-08
4.8367021e-07
3.4363641e-05
6.7575443e-08
4.5810064e-07
3.4004828e-05
6.5652876e-08
4.3489997e-07
3.3664659e-05
6.4098614e-08
4.137721e-07
3.3341393e-05
6.285592e-08
3.9446094e-07
3.3033513e-05
6.1877019e-08
3.7674528e-07
3.2739693e-05
6.1121124e-08
3.6043424e-07
3.2458768e-05
6.0553095e-08
3.4536328e-07
3.2189712e-05
6.0142666e-08
3.313906e-07
3.1931622e-05
5.9863666e-08
3.1839378e-07
3.1683696e-05
5.9693112e-08
3.0626737e-07
3.1445219e-05
5.9611206e-08
2.9492012e-07
3.1215555e-05
5.9600653e-08
2.8427316e-07
3.0994132e-05
5.9646553e-08
2.7425807e-07
3.0780436e-05
5.9736177e-08
2.6481543e-07
3.0574002e-05
5.9858646e-08
2.5589333e-07
3.0374407e-05
6.0004918e-08
2.4744662e-07
3.0181267e-05
6.0167637e-08
2.3943549e-07
2.9994229e-05
6.0341256e-08
2.3182485e-07
2.9812971e-05
6.052179e-08
2.2458373e-07
2.9637193e-05
6.0704449e-08
2.1768453e-07
2.9466629e-05
6.086731e-08
2.1110455e-07
2.9301024e-05
6.1017007e-08
2.0482179e-07
2.914014e-05
6.1160886e-08
1.9881568e-07
2.8983756e-05
6.1294977e-08
1.9306839e-07
2.8831669e-05
6.1415497e-08
1.8756389e-07
2.8683688e-05
6.1520958e-08
1.8228765e-07
2.8539633e-05
6.1610595e-08
1.7722636e-07
2.8399336e-05
6.1683813e-08
1.7236785e-07
2.8262639e-05
6.1740496e-08
1.6770092e-07
2.8129394e-05
6.1780704e-08
1.6321519e-07
2.7999461e-05
6.1803893e-08
1.5890121e-07
2.7872709e-05
6.1807389e-08
1.5475035e-07
2.7749012e-05
6.1793566e-08
1.5075445e-07
2.7628253e-05
6.1764807e-08
1.4690558e-07
2.7510319e-05
6.1721008e-08
1.4319661e-07
2.7395105e-05
6.1662142e-08
1.3962086e-07
2.728251e-05
6.1588605e-08
1.3617201e-07
2.7172439e-05
6.1501039e-08
1.328442e-07
2.7064802e-05
6.1399967e-08
1.2963191e-07
2.6959511e-05
6.1285953e-08
1.2652991e-07
2.6856486e-05
6.1159533e-08
1.2353323e-07
2.6755649e-05
6.102134e-08
1.2063731e-07
2.6656924e-05
6.0871892e-08
1.1783769e-07
2.6560242e-05
6.0711735e-08
1.1513016e-07
2.6465535e-05
6.0541373e-08
1.1251079e-07
2.6372738e-05
6.0361325e-08
1.0997581e-07
2.6281791e-05
6.0171936e-08
1.0752162e-07
2.6192636e-05
5.997353e-08
1.0514472e-07
2.6105215e-05
5.9766314e-08
1.0284181e-07
2.6019477e-05
5.9550225e-08
1.0060973e-07
2.5935371e-05
5.9325137e-08
9.8445309e-08
2.585285e-05
5.9090517e-08
9.6345382e-08
2.5771868e-05
5.884551e-08
9.4306959e-08
2.5692384e-05
5.8588997e-08
9.2326753e-08
2.5614357e-05
5.8319823e-08
9.0401431e-08
2.5537753e-05
5.8037099e-08
8.8527335e-08
2.5462539e-05
5.7741647e-08
8.6700199e-08
2.5388689e-05
5.7438448e-08
8.4915204e-08
2.5316184e-05
5.7141436e-08
8.3166663e-08
2.5245017e-05
5.6882568e-08
8.1449662e-08
2.51752e-05
5.6726041e-08
7.9765809e-08
2.510677e-05
5.6787905e-08
7.8149172e-08
2.5039729e-05
5.7251601e-08
7.6780954e-08
2.4973573e-05
5.8330959e-08
7.6510216e-08
2.4906079e-05
5.9989453e-08
7.9732177e-08
6.0714982e-08
1.1287822e-07
0.00010503672
9.078937e-07
6.5005614e-06
9.9140653e-05
1.6524914e-06
6.6166801e-06
9.3788329e-05
2.0825241e-06
6.1717217e-06
8.8708526e-05
2.2549373e-06
5.91053e-06
8.3909682e-05
2.278404e-06
5.6151748e-06
7.9437109e-05
2.2074821e-06
5.2497564e-06
7.5296201e-05
2.0645348e-06
4.8553893e-06
7.1474034e-05
1.8722543e-06
4.4605969e-06
6.7955013e-05
1.6547667e-06
4.0771269e-06
6.4723621e-05
1.4313505e-06
3.7107669e-06
6.1764423e-05
1.2154297e-06
3.3655007e-06
5.9062056e-05
1.015864e-06
3.0438911e-06
5.6601108e-05
8.3782742e-07
2.7471548e-06
5.4365944e-05
6.8344649e-07
2.475497e-06
5.2340648e-05
5.525853e-07
2.2284383e-06
5.0509125e-05
4.4366548e-07
2.0050361e-06
4.8855299e-05
3.5433454e-07
1.8040352e-06
4.7363353e-05
2.8193589e-07
1.6239821e-06
4.6017963e-05
2.2381344e-07
1.4633127e-06
4.4804503e-05
1.7749382e-07
1.3204181e-06
4.3709199e-05
1.4078088e-07
1.1936935e-06
4.2719248e-05
1.1179154e-07
1.081575e-06
4.1822875e-05
8.8954549e-08
9.8256583e-07
4.1009364e-05
7.0987993e-08
8.9525473e-07
4.0269054e-05
5.6861809e-08
8.1832383e-07
3.9593306e-05
4.5719121e-08
7.5058479e-07
3.8974405e-05
3.6977852e-08
6.9093439e-07
3.8405585e-05
3.0067358e-08
6.383863e-07
3.7880869e-05
2.4650875e-08
5.920424e-07
3.7395029e-05
2.044e-08
5.5110603e-07
3.6943514e-05
1.7190286e-08
5.1487713e-07
3.6522366e-05
1.4716743e-08
4.8273955e-07
3.6128148e-05
1.2874794e-08
4.5415391e-07
3.5757883e-05
1.154992e-08
4.2864941e-07
3.5408991e-05
1.0650769e-08
4.0581702e-07
3.5079238e-05
1.0103624e-08
3.8530229e-07
3.4766689e-05
9.8482777e-09
3.6679877e-07
3.4469668e-05
9.8350979e-09
3.5004233e-07
3.4186716e-05
1.0022915e-08
3.3480555e-07
3.3916567e-05
1.037704e-08
3.2089288e-07
3.3658116e-05
1.0868071e-08
3.081366e-07
3.3410395e-05
1.147097e-08
2.9639284e-07
3.3172556e-05
1.2164239e-08
2.8553827e-07
3.2943852e-05
1.2929307e-08
2.754672e-07
3.2723625e-05
1.3750145e-08
2.6608893e-07
3.2511286e-05
1.4613057e-08
2.5732571e-07
3.2306316e-05
1.5506217e-08
2.4911068e-07
3.2108246e-05
1.6419592e-08
2.4138623e-07
3.1916658e-05
1.7344623e-08
2.3410271e-07
3.1731171e-05
1.8274303e-08
2.2721713e-07
3.1551444e-05
1.920316e-08
2.2069215e-07
3.1377162e-05
2.0127745e-08
2.1449509e-07
3.1208038e-05
2.1048661e-08
2.0859682e-07
3.10438e-05
2.1972794e-08
2.0297056e-07
3.0884232e-05
2.2827856e-08
1.9760738e-07
3.0729103e-05
2.3662975e-08
1.924823e-07
3.05782e-05
2.4490045e-08
1.8757381e-07
3.0431331e-05
2.52963e-08
1.8286761e-07
3.0288318e-05
2.6078028e-08
1.7835074e-07
3.0148994e-05
2.6834337e-08
1.7401108e-07
3.0013202e-05
2.75647e-08
1.6983754e-07
2.9880797e-05
2.8268972e-08
1.6582025e-07
2.975164e-05
2.8947435e-08
1.6195014e-07
2.96256e-05
2.9600757e-08
1.5821896e-07
2.9502557e-05
3.0228559e-08
1.5461921e-07
2.9382396e-05
3.0823575e-08
1.5114465e-07
2.9265007e-05
3.1393132e-08
1.4778878e-07
2.9150287e-05
3.1939594e-08
1.4454537e-07
2.9038137e-05
3.2461884e-08
1.4140901e-07
2.8928465e-05
3.2960056e-08
1.3837462e-07
2.8821181e-05
3.3434728e-08
1.3543753e-07
2.8716203e-05
3.3886367e-08
1.325933e-07
2.8613449e-05
3.4315565e-08
1.2983786e-07
2.8512845e-05
3.4722901e-08
1.2716736e-07
2.8414317e-05
3.5108972e-08
1.2457815e-07
2.8317797e-05
3.5474446e-08
1.220668e-07
2.8223219e-05
3.5819896e-08
1.196301e-07
2.813052e-05
3.6145934e-08
1.1726492e-07
2.803964e-05
3.6453082e-08
1.1496841e-07
2.7950522e-05
3.6741886e-08
1.1273773e-07
2.7863111e-05
3.701281e-08
1.1057029e-07
2.7777354e-05
3.7266253e-08
1.0846346e-07
2.7693204e-05
3.7502488e-08
1.0641474e-07
2.761061e-05
3.7721613e-08
1.0442174e-07
2.752953e-05
3.7923554e-08
1.0248202e-07
2.744992e-05
3.8107991e-08
1.0059306e-07
2.7371738e-05
3.8274285e-08
9.8752313e-08
2.7294949e-05
3.8421545e-08
9.6956915e-08
2.7219516e-05
3.8548741e-08
9.5203627e-08
2.714541e-05
3.8655121e-08
9.3488622e-08
2.7072603e-05
3.8741169e-08
9.1806951e-08
2.7001079e-05
3.8810255e-08
9.0152313e-08
2.6930832e-05
3.8872105e-08
8.8516552e-08
2.6861876e-05
3.8947389e-08
8.6890539e-08
2.679426e-05
3.9073546e-08
8.5269183e-08
2.6728065e-05
3.9306959e-08
8.3675925e-08
2.6663337e-05
3.9708378e-08
8.2271157e-08
2.659956e-05
4.0271993e-08
8.1836162e-08
2.6534295e-05
4.0698014e-08
8.4555688e-08
3.9620849e-08
1.1507129e-07
0.00010494757
5.6811082e-07
6.5033076e-06
9.8925416e-05
1.0462983e-06
6.6283516e-06
9.3480449e-05
1.3439844e-06
6.1835065e-06
8.8341777e-05
1.4751324e-06
5.9184763e-06
8.3502084e-05
1.4993911e-06
5.6187065e-06
7.9004057e-05
1.4572411e-06
5.2482679e-06
7.4853978e-05
1.3667382e-06
4.8478757e-06
7.1037378e-05
1.2423974e-06
4.4464569e-06
6.7536063e-05
1.0997693e-06
4.0563127e-06
6.4331998e-05
9.5192361e-07
3.6834909e-06
6.1407318e-05
8.0805758e-07
3.3320524e-06
5.8744339e-05
6.7422207e-07
3.0046209e-06
5.6325632e-05
5.5404399e-07
2.7024907e-06
5.4133973e-05
4.4916749e-07
2.4259383e-06
5.2152298e-05
3.5972401e-07
2.174536e-06
5.0363747e-05
2.8484512e-07
1.9473718e-06
4.875178e-05
2.2310004e-07
1.7432015e-06
4.7300339e-05
1.7281164e-07
1.5605647e-06
4.5994012e-05
1.3226572e-07
1.3978747e-06
4.4818177e-05
9.9840031e-08
1.2534891e-06
4.3759121e-05
7.4075586e-08
1.1257614e-06
4.2804123e-05
5.3707651e-08
1.0130814e-06
4.1941503e-05
3.7671197e-08
9.1390376e-07
4.1160627e-05
2.5096453e-08
8.2676732e-07
4.0451891e-05
1.5294164e-08
7.5030389e-07
3.980679e-05
7.5281616e-09
6.8329177e-07
3.9217543e-05
1.6727512e-09
6.2455204e-07
3.8677513e-05
-3.0331066e-09
5.7313081e-07
3.8180739e-05
-6.648662e-09
5.2807354e-07
3.7722004e-05
-9.3595227e-09
4.885345e-07
3.7296777e-05
-1.1371794e-08
4.5378927e-07
3.6901112e-05
-1.2818221e-08
4.2319912e-07
3.6531588e-05
-1.3805284e-08
3.9620479e-07
3.6185236e-05
-1.4417475e-08
3.7231872e-07
3.5859491e-05
-1.4721875e-08
3.5111776e-07
3.5552132e-05
-1.4772599e-08
3.3223581e-07
3.5261237e-05
-1.4613904e-08
3.1535728e-07
3.4985143e-05
-1.4282171e-08
3.0021088e-07
3.472241e-05
-1.3807708e-08
2.8656379e-07
3.4471787e-05
-1.3215889e-08
2.7421633e-07
3.4232185e-05
-1.2528198e-08
2.629977e-07
3.4002657e-05
-1.1762837e-08
2.5276172e-07
3.3782373e-05
-1.0935264e-08
2.4338336e-07
3.3570606e-05
-1.0058774e-08
2.3475556e-07
3.3366714e-05
-9.1447413e-09
2.2678672e-07
3.3170132e-05
-8.202832e-09
2.1939834e-07
3.2980356e-05
-7.2412436e-09
2.1252301e-07
3.279694e-05
-6.2668894e-09
2.0610283e-07
3.2619482e-05
-5.2855478e-09
2.0008784e-07
3.2447623e-05
-4.3018525e-09
1.9443478e-07
3.228104e-05
-3.3190417e-09
1.8910588e-07
3.2119438e-05
-2.3383241e-09
1.8406734e-07
3.1962554e-05
-1.3530215e-09
1.7928647e-07
3.1810075e-05
-2.7632113e-10
1.7472766e-07
3.1661878e-05
5.8582758e-10
1.7043906e-07
3.1517732e-05
1.4356094e-09
1.6637292e-07
3.1377429e-05
2.3038236e-09
1.6248957e-07
3.1240792e-05
3.1586577e-09
1.5877485e-07
3.1107656e-05
3.996987e-09
1.552172e-07
3.0977867e-05
4.8171626e-09
1.5180546e-07
3.0851284e-05
5.6179708e-09
1.485297e-07
3.0727774e-05
6.3990626e-09
1.4538079e-07
3.0607209e-05
7.1609518e-09
1.4235054e-07
3.0489473e-05
7.9059471e-09
1.3943124e-07
3.037445e-05
8.6357331e-09
1.3661579e-07
3.0262049e-05
9.320659e-09
1.3390396e-07
3.0152163e-05
9.9938045e-09
1.3128567e-07
3.0044697e-05
1.0650372e-08
1.2875513e-07
2.9939564e-05
1.1286743e-08
1.2630826e-07
2.983668e-05
1.1903226e-08
1.2394089e-07
2.9735965e-05
1.2500144e-08
1.2164885e-07
2.9637345e-05
1.3077879e-08
1.1942843e-07
2.9540748e-05
1.3636722e-08
1.1727617e-07
2.9446105e-05
1.4177021e-08
1.1518882e-07
2.9353352e-05
1.4699209e-08
1.1316339e-07
2.9262425e-05
1.5203555e-08
1.1119702e-07
2.9173268e-05
1.5690496e-08
1.0928708e-07
2.9085822e-05
1.6160407e-08
1.0743106e-07
2.9000035e-05
1.6613597e-08
1.0562665e-07
2.8915855e-05
1.7050421e-08
1.0387154e-07
2.8833233e-05
1.7471153e-08
1.0216363e-07
2.8752123e-05
1.7875985e-08
1.0050083e-07
2.8672479e-05
1.8265093e-08
9.8881097e-08
2.8594259e-05
1.8638543e-08
9.7302479e-08
2.8517424e-05
1.8996229e-08
9.576296e-08
2.8441934e-05
1.9337802e-08
9.4260351e-08
2.8367753e-05
1.9662783e-08
9.2792326e-08
2.8294848e-05
1.9970503e-08
9.1356285e-08
2.8223187e-05
2.0260031e-08
8.9948864e-08
2.8152746e-05
2.0530701e-08
8.8565911e-08
2.8083503e-05
2.0782591e-08
8.7201785e-08
2.8015447e-05
2.1017541e-08
8.5848675e-08
2.7948582e-05
2.1240725e-08
8.4495846e-08
2.7882937e-05
2.1462729e-08
8.3129529e-08
2.7818574e-05
2.1699986e-08
8.1736521e-08
2.7755588e-05
2.1969294e-08
8.0324361e-08
2.7694014e-05
2.2266205e-08
7.9016066e-08
2.7633299e-05
2.2506305e-08
7.8480645e-08
2.7571004e-05
2.2393427e-08
8.0599454e-08
2.0993125e-08
1.0779947e-07
0.00010489986
2.7443376e-07
6.5049155e-06
9.8802772e-05
5.0716632e-07
6.6362236e-06
9.329591e-05
6.5854974e-07
6.1922972e-06
8.8116302e-05
7.2902543e-07
5.9257148e-06
8.3248198e-05
7.4378813e-07