/*--------------------------------*- C++ -*----------------------------------*\
  =========                 |
  \\      /  F ield         | OpenFOAM: The Open Source CFD Toolbox
   \\    /   O peration     | Website:  https://openfoam.org
    \\  /    A nd           | Version:  7
     \\/     M anipulation  |
\*---------------------------------------------------------------------------*/
FoamFile
{
    version     2.0;
    format      ascii;
    class       surfaceScalarField;
    location    "3200/water";
    object      phi;
}
// * * * * * * * * * * * * * * * * * * * * * * * * * * * * * * * * * * * * * //

dimensions      [1 0 -1 0 0 0 0];

internalField   nonuniform List<scalar> 
156660
(
9.9057239e-05
6.0010402e-06
6.0528092e-06
8.6847497e-05
6.0555113e-06
6.1542307e-06
7.5687891e-05
5.5111362e-06
5.6484701e-06
6.5441704e-05
5.0404181e-06
5.2057689e-06
5.6267661e-05
4.4956436e-06
4.6783991e-06
4.8318019e-05
3.8797648e-06
4.0698777e-06
4.1624776e-05
3.2524449e-06
3.4407981e-06
3.6124897e-05
2.660462e-06
2.839417e-06
3.1692235e-05
2.1345126e-06
2.2981489e-06
2.8162841e-05
1.6926975e-06
1.8366964e-06
2.5361437e-05
1.3399933e-06
1.4614113e-06
2.3124664e-05
1.0698476e-06
1.1669256e-06
2.1315127e-05
8.6875419e-07
9.4078227e-07
1.9825714e-05
7.2110062e-07
7.6831274e-07
1.8577278e-05
6.1248245e-07
6.3595306e-07
1.7513255e-05
5.3125219e-07
5.3277149e-07
1.6593744e-05
4.6879724e-07
4.5071346e-07
1.5790433e-05
4.1913719e-07
3.8417386e-07
1.5082784e-05
3.782907e-07
3.2935848e-07
1.4455417e-05
3.4367128e-07
2.8369561e-07
1.3896409e-05
3.1361406e-07
2.4539332e-07
1.339622e-05
2.8704448e-07
2.131445e-07
1.2947015e-05
2.6326032e-07
1.859451e-07
1.2542237e-05
2.4179368e-07
1.6298461e-07
1.2176318e-05
2.2232208e-07
1.4359687e-07
1.1844484e-05
2.0461483e-07
1.272188e-07
1.1542609e-05
1.8849497e-07
1.1337973e-07
1.1267116e-05
1.7381575e-07
1.0167791e-07
1.1014892e-05
1.6046272e-07
9.1760828e-08
1.0783252e-05
1.4833966e-07
8.3300604e-08
1.0569851e-05
1.3734906e-07
7.6052135e-08
1.0372614e-05
1.2738861e-07
6.9848324e-08
1.0189731e-05
1.1836808e-07
6.4514846e-08
1.001963e-05
1.1020449e-07
5.989666e-08
9.8609388e-06
1.0281921e-07
5.5871666e-08
9.7124595e-06
9.6137959e-08
5.2341392e-08
9.5731439e-06
9.0091184e-08
4.9224348e-08
9.4420759e-06
8.4614459e-08
4.6453597e-08
9.3184531e-06
7.9648651e-08
4.3974146e-08
9.2015723e-06
7.5139691e-08
4.1741071e-08
9.0908166e-06
7.1038167e-08
3.9717546e-08
8.9856432e-06
6.7301127e-08
3.7872311e-08
8.8855708e-06
6.3894279e-08
3.617816e-08
8.7901757e-06
6.0780103e-08
3.4614936e-08
8.6990829e-06
5.7926154e-08
3.3166639e-08
8.611959e-06
5.5303722e-08
3.1820121e-08
8.5285072e-06
5.2887454e-08
3.0564396e-08
8.4484618e-06
5.0655067e-08
2.939027e-08
8.3715848e-06
4.8587031e-08
2.8290034e-08
8.2976614e-06
4.6666179e-08
2.7257223e-08
8.2264975e-06
4.4877506e-08
2.6286422e-08
8.1579202e-06
4.3208792e-08
2.5368551e-08
8.0917731e-06
4.1649037e-08
2.4498036e-08
8.0279108e-06
4.0186997e-08
2.3675366e-08
7.9662006e-06
3.8812677e-08
2.2897519e-08
7.9065219e-06
3.7518412e-08
2.2160236e-08
7.8487639e-06
3.6297837e-08
2.1460177e-08
7.7928242e-06
3.5145151e-08
2.0794582e-08
7.7386084e-06
3.405466e-08
2.0161154e-08
7.6860293e-06
3.3021354e-08
1.9557692e-08
7.6350063e-06
3.2040792e-08
1.898225e-08
7.5854641e-06
3.1109064e-08
1.8433075e-08
7.537333e-06
3.0222607e-08
1.7908485e-08
7.4905478e-06
2.9378216e-08
1.7407004e-08
7.4450476e-06
2.8572976e-08
1.6927185e-08
7.4007756e-06
2.7804209e-08
1.6467792e-08
7.3576783e-06
2.7069597e-08
1.6027631e-08
7.3157057e-06
2.6367065e-08
1.5605639e-08
7.2748103e-06
2.5694649e-08
1.5200676e-08
7.2349479e-06
2.5050537e-08
1.4811835e-08
7.1960766e-06
2.4433094e-08
1.4438177e-08
7.158157e-06
2.3840665e-08
1.4078931e-08
7.1211518e-06
2.3271899e-08
1.3733289e-08
7.0850258e-06
2.2725506e-08
1.3400522e-08
7.0497457e-06
2.2200185e-08
1.3079935e-08
7.0152798e-06
2.1694918e-08
1.2770866e-08
6.9815985e-06
2.1208582e-08
1.2472754e-08
6.9486733e-06
2.0740247e-08
1.2184921e-08
6.9164775e-06
2.0289006e-08
1.190682e-08
6.8849858e-06
1.9853983e-08
1.1637852e-08
6.8541739e-06
1.9434363e-08
1.1377437e-08
6.8240194e-06
1.9029471e-08
1.112512e-08
6.7945006e-06
1.8638492e-08
1.0880249e-08
6.7655975e-06
1.8260764e-08
1.0642316e-08
6.7372912e-06
1.7895545e-08
1.041075e-08
6.709564e-06
1.7542117e-08
1.0185093e-08
6.6823996e-06
1.7199636e-08
9.9648871e-09
6.6557824e-06
1.6867264e-08
9.7498285e-09
6.6296983e-06
1.6544111e-08
9.5399789e-09
6.6041331e-06
1.6229282e-08
9.335994e-09
6.5790714e-06
1.5921971e-08
9.1396691e-09
6.554494e-06
1.5622304e-08
8.955115e-09
6.5303708e-06
1.533255e-08
8.7906628e-09
6.5066467e-06
1.5060452e-08
8.6636093e-09
6.4832094e-06
1.4827809e-08
8.6095008e-09
6.4598103e-06
1.4693087e-08
8.7059938e-09
6.4358388e-06
1.4826405e-08
9.1451651e-09
6.4096302e-06
1.574176e-08
1.0466765e-08
6.3782855e-06
1.8026575e-08
1.3318179e-08
3.2300217e-08
2.7923522e-08
0.00010646494
4.1872385e-06
6.4599816e-06
0.0001002019
5.695418e-06
6.6231353e-06
9.3659588e-05
5.7790388e-06
6.2744098e-06
8.7011589e-05
5.6514782e-06
6.0369387e-06
8.0422927e-05
5.3669119e-06
5.7173941e-06
7.4094022e-05
4.9022832e-06
5.3063863e-06
6.8167026e-05
4.3278136e-06
4.8516272e-06
6.2722565e-05
3.717891e-06
4.387032e-06
5.7799049e-05
3.1243144e-06
3.9337145e-06
5.3403345e-05
2.5820689e-06
3.5063329e-06
4.9517402e-05
2.1121062e-06
3.1138299e-06
4.6105483e-05
1.7220197e-06
2.7597474e-06
4.3121558e-05
1.4089355e-06
2.4437429e-06
4.0515558e-05
1.1637552e-06
2.163346e-06
3.8237948e-05
9.748585e-07
1.9152336e-06
3.6242683e-05
8.3055975e-07
1.6959573e-06
3.4488759e-05
7.2043699e-07
1.5022849e-06
3.2940716e-05
6.3586299e-07
1.3313172e-06
3.1568463e-05
5.7005006e-07
1.1804931e-06
3.0346733e-05
5.1784896e-07
1.0475522e-06
2.9254398e-05
4.7545957e-07
9.3049031e-07
2.8273782e-05
4.4013959e-07
8.2752025e-07
2.7390054e-05
4.0994891e-07
7.3704009e-07
2.6590699e-05
3.8353954e-07
6.5760857e-07
2.5865102e-05
3.5998888e-07
5.8793071e-07
2.5204197e-05
3.3867632e-07
5.268426e-07
2.4600205e-05
3.1918362e-07
4.733035e-07
2.4046429e-05
3.0120191e-07
4.2639017e-07
2.3537073e-05
2.8455208e-07
3.8526715e-07
2.3067119e-05
2.6911102e-07
3.4918238e-07
2.2632208e-05
2.5478168e-07
3.1747785e-07
2.2228528e-05
2.4147383e-07
2.8959532e-07
2.1852744e-05
2.2911074e-07
2.6504124e-07
2.1501947e-05
2.1762895e-07
2.4337258e-07
2.1173591e-05
2.0696949e-07
2.2420574e-07
2.0865444e-05
1.9707566e-07
2.0720867e-07
2.0575549e-05
1.8789251e-07
1.9209398e-07
2.0302183e-05
1.7936724e-07
1.7861343e-07
2.0043829e-05
1.7144909e-07
1.6655324e-07
1.979915e-05
1.6408981e-07
1.5572943e-07
1.956696e-05
1.5724382e-07
1.4598404e-07
1.934621e-05
1.5086896e-07
1.3718217e-07
1.9135969e-05
1.4492655e-07
1.2920884e-07
1.8935407e-05
1.3937908e-07
1.2196307e-07
1.8743783e-05
1.3419232e-07
1.1535762e-07
1.8560435e-05
1.293351e-07
1.0931725e-07
1.8384766e-05
1.2477909e-07
1.0377714e-07
1.8216241e-05
1.2049852e-07
9.8681281e-08
1.8054377e-05
1.1647014e-07
9.3981291e-08
1.7898734e-05
1.1267292e-07
8.9635399e-08
1.7748917e-05
1.0908822e-07
8.5606984e-08
1.7604563e-05
1.0570002e-07
8.1862423e-08
1.7465345e-05
1.0249339e-07
7.8373311e-08
1.7330962e-05
9.9452967e-08
7.5116994e-08
1.7201138e-05
9.6564403e-08
7.2072738e-08
1.7075619e-05
9.3816644e-08
6.922117e-08
1.695417e-05
9.1201087e-08
6.6545122e-08
1.6836577e-05
8.8709091e-08
6.4029533e-08
1.6722638e-05
8.6331929e-08
6.1661028e-08
1.661217e-05
8.4061766e-08
5.942772e-08
1.6505001e-05
8.1891543e-08
5.7318841e-08
1.640097e-05
7.9814925e-08
5.5324849e-08
1.6299929e-05
7.7826126e-08
5.3437142e-08
1.620174e-05
7.5919814e-08
5.164792e-08
1.6106272e-05
7.4091017e-08
4.9950113e-08
1.6013404e-05
7.2334953e-08
4.8337375e-08
1.5923022e-05
7.0647698e-08
4.6803863e-08
1.5835019e-05
6.9025694e-08
4.5344303e-08
1.5749294e-05
6.7465503e-08
4.3953684e-08
1.5665753e-05
6.5963763e-08
4.2627698e-08
1.5584307e-05
6.451733e-08
4.1362158e-08
1.5504871e-05
6.3123396e-08
4.0153336e-08
1.5427366e-05
6.1779288e-08
3.8997802e-08
1.5351716e-05
6.0482526e-08
3.7892263e-08
1.5277852e-05
5.9230809e-08
3.6833837e-08
1.5205705e-05
5.8021997e-08
3.5819729e-08
1.5135212e-05
5.6854011e-08
3.4847368e-08
1.5066313e-05
5.5725001e-08
3.3914349e-08
1.499895e-05
5.4633131e-08
3.3018405e-08
1.493307e-05
5.3576731e-08
3.2157452e-08
1.4868621e-05
5.255417e-08
3.1329415e-08
1.4805554e-05
5.1563951e-08
3.0532415e-08
1.4743823e-05
5.0604455e-08
2.9764643e-08
1.4683386e-05
4.9674265e-08
2.9024355e-08
1.4624199e-05
4.8771809e-08
2.8309861e-08
1.4566226e-05
4.7895451e-08
2.7619571e-08
1.4509431e-05
4.7043532e-08
2.6951983e-08
1.4453778e-05
4.6214107e-08
2.6305768e-08
1.4399237e-05
4.5405395e-08
2.5679893e-08
1.4345777e-05
4.4615702e-08
2.5073716e-08
1.4293367e-05
4.3844279e-08
2.4487705e-08
1.4241972e-05
4.3092863e-08
2.3923751e-08
1.4191548e-05
4.2369932e-08
2.3387163e-08
1.4142019e-05
4.1699333e-08
2.2889659e-08
1.4093249e-05
4.1141628e-08
2.2456608e-08
1.4044951e-05
4.0844627e-08
2.2146549e-08
1.3996485e-05
4.1169208e-08
2.2123059e-08
1.3946229e-05
4.3012309e-08
2.2985424e-08
1.389015e-05
4.8540277e-08
2.5565772e-08
6.3281571e-08
5.0000869e-08
0.00010603565
2.7876425e-06
6.4750379e-06
0.00010074799
4.4145413e-06
6.5685292e-06
9.5493515e-05
4.8594028e-06
6.1741159e-06
9.0256432e-05
4.930369e-06
5.9581921e-06
8.5101366e-05
4.8311767e-06
5.6908012e-06
8.0102875e-05
4.5561761e-06
5.3445981e-06
7.5322251e-05
4.1469521e-06
4.9614853e-06
7.0803266e-05
3.6678925e-06
4.5689837e-06
6.6576264e-05
3.1701903e-06
4.1811255e-06
6.2660725e-05
2.6900109e-06
3.8075976e-06
5.9065443e-05
2.2519319e-06
3.4554566e-06
5.5788936e-05
1.8697304e-06
3.1287958e-06
5.2820978e-05
1.5477473e-06
2.8291458e-06
5.014479e-05
1.2836302e-06
2.5563139e-06
4.7739304e-05
1.07123e-06
2.3091141e-06
4.5581183e-05
9.0281506e-07
2.0858661e-06
4.3646423e-05
7.7048779e-07
1.884709e-06
4.1911533e-05
6.6697375e-07
1.7037793e-06
4.0354306e-05
5.8598196e-07
1.541295e-06
3.8954268e-05
5.2230221e-07
1.3955849e-06
3.769288e-05
4.7175605e-07
1.265091e-06
3.6553576e-05
4.3107985e-07
1.1483634e-06
3.552169e-05
3.9778206e-07
1.0440533e-06
3.4584322e-05
3.6999882e-07
9.5090831e-07
3.3730181e-05
3.4635986e-07
8.677702e-07
3.2949411e-05
3.258776e-07
7.935687e-07
3.2233419e-05
3.0784048e-07
7.2733484e-07
3.1574711e-05
2.9172985e-07
6.6818102e-07
3.0966769e-05
2.7719264e-07
6.1530127e-07
3.0403928e-05
2.6398101e-07
5.6797016e-07
2.9881258e-05
2.5190847e-07
5.2554315e-07
2.9394455e-05
2.4082713e-07
4.8745003e-07
2.8939761e-05
2.306216e-07
4.5318327e-07
2.8513895e-05
2.2120153e-07
4.2229385e-07
2.8113985e-05
2.1249191e-07
3.9438674e-07
2.7737518e-05
2.0442793e-07
3.6911491e-07
2.7382285e-05
1.9695194e-07
3.4617386e-07
2.7046344e-05
1.9001176e-07
3.2529679e-07
2.6727982e-05
1.8355993e-07
3.0625043e-07
2.6425689e-05
1.7755273e-07
2.8883082e-07
2.6138123e-05
1.7195005e-07
2.7285985e-07
2.5864095e-05
1.6671518e-07
2.5818181e-07
2.5602546e-05
1.6181453e-07
2.446609e-07
2.535253e-05
1.5721711e-07
2.3217763e-07
2.51132e-05
1.5289444e-07
2.2062727e-07
2.4883797e-05
1.48821e-07
2.0991772e-07
2.4663634e-05
1.4497365e-07
1.999681e-07
2.4452094e-05
1.4133182e-07
1.9070705e-07
2.4248615e-05
1.3787699e-07
1.8207153e-07
2.405269e-05
1.3459266e-07
1.7400571e-07
2.3863854e-05
1.3146461e-07
1.6645988e-07
2.3681684e-05
1.2848058e-07
1.5938927e-07
2.3505794e-05
1.2562918e-07
1.5275414e-07
2.3335829e-05
1.2289868e-07
1.4651969e-07
2.3171462e-05
1.2027636e-07
1.406546e-07
2.3012394e-05
1.1775473e-07
1.3513021e-07
2.2858345e-05
1.1532968e-07
1.2992044e-07
2.2709057e-05
1.1299535e-07
1.2500175e-07
2.2564291e-05
1.1074515e-07
1.2035287e-07
2.2423824e-05
1.0857347e-07
1.159546e-07
2.2287451e-05
1.0647549e-07
1.1178925e-07
2.2154978e-05
1.0444701e-07
1.0784081e-07
2.2026226e-05
1.0248419e-07
1.0409458e-07
2.1901025e-05
1.0058353e-07
1.0053715e-07
2.1779218e-05
9.8741534e-08
9.7156174e-08
2.1660658e-05
9.6954884e-08
9.3940271e-08
2.1545205e-05
9.5221253e-08
9.0879028e-08
2.1432729e-05
9.353878e-08
8.7962818e-08
2.1323107e-05
9.1905298e-08
8.5182614e-08
2.1216222e-05
9.0318502e-08
8.2530187e-08
2.1111965e-05
8.877639e-08
7.9997896e-08
2.1010233e-05
8.7277113e-08
7.7578649e-08
2.0910927e-05
8.5818948e-08
7.5265876e-08
2.0813956e-05
8.4400311e-08
7.3053434e-08
2.0719232e-05
8.3019668e-08
7.0935625e-08
2.0626671e-05
8.167561e-08
6.8907179e-08
2.0536195e-05
8.0366837e-08
6.6963118e-08
2.0447729e-05
7.9091993e-08
6.509874e-08
2.0361203e-05
7.7849857e-08
6.3309765e-08
2.0276548e-05
7.6639224e-08
6.1592045e-08
2.0193702e-05
7.5459008e-08
5.9941752e-08
2.0112602e-05
7.4307948e-08
5.8355204e-08
2.0033193e-05
7.31849e-08
5.6829062e-08
1.9955419e-05
7.2088569e-08
5.5359948e-08
1.9879228e-05
7.1017619e-08
5.3944848e-08
1.9804572e-05
6.9970425e-08
5.2580746e-08
1.9731406e-05
6.8945267e-08
5.1264813e-08
1.9659685e-05
6.794014e-08
4.999442e-08
1.9589371e-05
6.6953037e-08
4.8767079e-08
1.9520423e-05
6.5982338e-08
4.758055e-08
1.9452807e-05
6.5028019e-08
4.6433096e-08
1.9386482e-05
6.4094113e-08
4.5323745e-08
1.9321404e-05
6.319468e-08
4.4253069e-08
1.9257511e-05
6.2366348e-08
4.3225224e-08
1.9194705e-05
6.1695178e-08
4.2253142e-08
1.9132798e-05
6.137409e-08
4.1377381e-08
1.9071394e-05
6.1822439e-08
4.0750691e-08
1.9009424e-05
6.3924763e-08
4.1057638e-08
1.8944661e-05
6.9304676e-08
4.3998818e-08
7.9170968e-08
7.4661565e-08
0.0001054937
1.9169871e-06
6.4880406e-06
0.00010005365
3.2729596e-06
6.5816334e-06
9.4926077e-05
3.8288995e-06
6.1580776e-06
8.9946373e-05
3.9838109e-06
5.9262629e-06
8.5163276e-05
3.9595077e-06
5.6547657e-06
8.0619137e-05
3.7899368e-06
5.3103784e-06
7.6329462e-05
3.5015547e-06
4.9350725e-06
7.230016e-05
3.1412013e-06
4.5559928e-06
6.8534206e-05
2.7514802e-06
4.1846641e-06
6.5032983e-05
2.3633493e-06
3.8278853e-06
6.1795789e-05
1.9984143e-06
3.490711e-06
5.8818843e-05
1.6703759e-06
3.176301e-06
5.6094717e-05
1.3858295e-06
2.886043e-06
5.3612488e-05
1.1457945e-06
2.6200649e-06
5.1358373e-05
9.4764118e-07
2.3777043e-06
4.9316593e-05
7.8676781e-07
2.1578272e-06
4.7470246e-05
6.5779546e-07
1.9590391e-06
4.5802069e-05
5.5532539e-07
1.7798252e-06
4.4295042e-05
4.7437116e-07
1.6186378e-06
4.293283e-05
4.1056669e-07
1.473948e-06
4.1700078e-05
3.6023238e-07
1.3442759e-06
4.0582591e-05
3.2035744e-07
1.2282094e-06
3.956742e-05
2.8853736e-07
1.1244154e-06
3.8642881e-05
2.6289068e-07
1.0316468e-06
3.7798527e-05
2.4196984e-07
9.48744e-07
3.7025076e-05
2.2467704e-07
8.7465173e-07
3.6314324e-05
2.1018898e-07
8.0840411e-07
3.5659057e-05
1.9788604e-07
7.491104e-07
3.5052961e-05
1.8731583e-07
6.9597281e-07
3.4490519e-05
1.7814871e-07
6.4827379e-07
3.3966922e-05
1.7013171e-07
6.053744e-07
3.3477973e-05
1.6306728e-07
5.6670867e-07
3.3020016e-05
1.5680298e-07
5.3177545e-07
3.2589865e-05
1.5122055e-07
5.0013244e-07
3.218474e-05
1.4622565e-07
4.7139139e-07
3.1802215e-05
1.4174075e-07
4.4521232e-07
3.1440168e-05
1.3770092e-07
4.2129808e-07
3.1096739e-05
1.3405093e-07
3.9938923e-07
3.0770297e-05
1.3074294e-07
3.7925952e-07
3.0459402e-05
1.2773515e-07
3.6071192e-07
3.0162787e-05
1.2499092e-07
3.4357479e-07
2.9879325e-05
1.2247786e-07
3.2769852e-07
2.960802e-05
1.2016735e-07
3.1295272e-07
2.934798e-05
1.1803384e-07
2.9922355e-07
2.9098408e-05
1.1605465e-07
2.8641138e-07
2.885859e-05
1.1420987e-07
2.7442904e-07
2.8627882e-05
1.1248195e-07
2.6319999e-07
2.8405701e-05
1.1085563e-07
2.5265687e-07
2.819152e-05
1.0931756e-07
2.4274023e-07
2.7984859e-05
1.0785646e-07
2.3339756e-07
2.7785279e-05
1.0646278e-07
2.2458211e-07
2.7592378e-05
1.051287e-07
2.1625215e-07
2.740579e-05
1.0384735e-07
2.0837038e-07
2.7225174e-05
1.0261115e-07
2.0090362e-07
2.705022e-05
1.0140746e-07
1.9382257e-07
2.6880641e-05
1.0023383e-07
1.8710039e-07
2.6716166e-05
9.9092329e-08
1.8071225e-07
2.6556546e-05
9.7979992e-08
1.7463558e-07
2.6401548e-05
9.6892524e-08
1.6885012e-07
2.6250957e-05
9.5827057e-08
1.6333739e-07
2.610457e-05
9.4781699e-08
1.5808043e-07
2.5962199e-05
9.3754718e-08
1.5306361e-07
2.5823666e-05
9.2744886e-08
1.4827262e-07
2.5688804e-05
9.1751041e-08
1.4369416e-07
2.5557458e-05
9.0771785e-08
1.3931601e-07
2.5429481e-05
8.9805184e-08
1.3512695e-07
2.5304734e-05
8.8851452e-08
1.3111644e-07
2.5183087e-05
8.7911213e-08
1.2727466e-07
2.5064416e-05
8.6983916e-08
1.2359246e-07
2.4948604e-05
8.606889e-08
1.2006119e-07
2.4835542e-05
8.5165764e-08
1.1667302e-07
2.4725124e-05
8.427429e-08
1.1342045e-07
2.4617252e-05
8.3394256e-08
1.1029657e-07
2.4511832e-05
8.2525468e-08
1.0729478e-07
2.4408775e-05
8.1667749e-08
1.04409e-07
2.4307997e-05
8.0820988e-08
1.016334e-07
2.4209416e-05
7.9985021e-08
9.8962647e-08
2.4112956e-05
7.9159744e-08
9.6391557e-08
2.4018546e-05
7.8345033e-08
9.3915284e-08
2.3926115e-05
7.7540682e-08
9.1529287e-08
2.3835598e-05
7.6746564e-08
8.9229255e-08
2.3746933e-05
7.5962299e-08
8.701102e-08
2.366006e-05
7.5187632e-08
8.4870734e-08
2.3574922e-05
7.4421977e-08
8.2804538e-08
2.3491466e-05
7.3664614e-08
8.0808909e-08
2.3409641e-05
7.2914638e-08
7.8880379e-08
2.33294e-05
7.2170704e-08
7.7015518e-08
2.3250698e-05
7.1431311e-08
7.5211007e-08
2.3173493e-05
7.0694853e-08
7.3463652e-08
2.3097745e-05
6.9960205e-08
7.177007e-08
2.3023418e-05
6.9227963e-08
7.0127012e-08
2.2950477e-05
6.8503503e-08
6.853119e-08
2.2878889e-05
6.7802872e-08
6.6979692e-08
2.2808619e-05
6.7165071e-08
6.5471574e-08
2.2739625e-05
6.6675269e-08
6.4013371e-08
2.267185e-05
6.6507112e-08
6.2642311e-08
2.2605149e-05
6.6990738e-08
6.1532359e-08
2.2538888e-05
6.868605e-08
6.1499882e-08
2.2471121e-05
7.2226949e-08
6.4845109e-08
7.6722844e-08
9.8461314e-08
0.0001051979
1.3340884e-06
6.4961221e-06
9.9496561e-05
2.3731022e-06
6.6011947e-06
9.4262459e-05
2.9019224e-06
6.1610798e-06
8.9251186e-05
3.0856641e-06
5.9094196e-06
8.4493497e-05
3.0947347e-06
5.6224614e-06
8.0033635e-05
2.9846657e-06
5.265134e-06
7.5876907e-05
2.7790155e-06
4.8792667e-06
7.2014635e-05
2.5106844e-06
4.4927895e-06
6.8436293e-05
2.2128728e-06
4.1169489e-06
6.5131387e-05
1.9107258e-06
3.7575291e-06
6.208941e-05
1.6217321e-06
3.4186596e-06
5.9299432e-05
1.3573877e-06
3.1029661e-06
5.6749589e-05
1.1240344e-06
2.8116387e-06
5.4426788e-05
9.2377949e-07
2.5448158e-06
5.2316754e-05
7.5572798e-07
2.3019466e-06
5.0404313e-05
6.1717854e-07
2.0820303e-06
4.8673788e-05
5.045435e-07
1.8837772e-06
4.7109414e-05
4.1397179e-07
1.7057274e-06
4.5695713e-05
3.4173648e-07
1.5463363e-06
4.4417792e-05
2.8445145e-07
1.4040359e-06
4.3261575e-05
2.3917113e-07
1.2772781e-06
4.2213953e-05
2.0341504e-07
1.1645652e-06
4.1262871e-05
1.7514742e-07
1.0644718e-06
4.039737e-05
1.5273233e-07
9.7565898e-07
3.9607583e-05
1.3487528e-07
8.9688145e-07
3.8884688e-05
1.205557e-07
8.2701641e-07
3.8220848e-05
1.0901092e-07
7.6501856e-07
3.7609155e-05
9.9633872e-08
7.0994488e-07
3.7043542e-05
9.197744e-08
6.6095088e-07
3.6518702e-05
8.5705823e-08
6.172829e-07
3.6030009e-05
8.055239e-08
5.782731e-07
3.5573433e-05
7.6308286e-08
5.4333414e-07
3.5145475e-05
7.2811308e-08
5.1195031e-07
3.4743091e-05
6.9934122e-08
4.8367022e-07
3.4363641e-05
6.7575438e-08
4.5810068e-07
3.4004828e-05
6.5652886e-08
4.3489995e-07
3.3664659e-05
6.4098578e-08
4.1377209e-07
3.3341393e-05
6.2855924e-08
3.9446092e-07
3.3033513e-05
6.1877017e-08
3.7674528e-07
3.2739693e-05
6.1121112e-08
3.6043422e-07
3.2458768e-05
6.0553091e-08
3.4536328e-07
3.2189712e-05
6.0142667e-08
3.3139057e-07
3.1931622e-05
5.9863679e-08
3.1839378e-07
3.1683696e-05
5.9693146e-08
3.0626734e-07
3.1445219e-05
5.9611227e-08
2.9492013e-07
3.1215555e-05
5.9600639e-08
2.8427315e-07
3.0994132e-05
5.9646552e-08
2.7425805e-07
3.0780436e-05
5.9736184e-08
2.6481542e-07
3.0574002e-05
5.9858686e-08
2.5589334e-07
3.0374407e-05
6.0004933e-08
2.4744663e-07
3.0181267e-05
6.0167627e-08
2.3943547e-07
2.9994229e-05
6.0341259e-08
2.3182486e-07
2.9812971e-05
6.0521796e-08
2.2458374e-07
2.9637193e-05
6.0704471e-08
2.1768458e-07
2.9466629e-05
6.0867264e-08
2.1110455e-07
2.9301024e-05
6.1016987e-08
2.0482178e-07
2.914014e-05
6.1160835e-08
1.9881566e-07
2.8983756e-05
6.1294906e-08
1.9306838e-07
2.8831669e-05
6.1415451e-08
1.8756388e-07
2.8683688e-05
6.1520947e-08
1.8228765e-07
2.8539633e-05
6.1610545e-08
1.7722638e-07
2.8399336e-05
6.1683799e-08
1.7236784e-07
2.8262639e-05
6.1740498e-08
1.6770091e-07
2.8129394e-05
6.1780699e-08
1.6321519e-07
2.7999461e-05
6.1803928e-08
1.5890121e-07
2.7872709e-05
6.1807394e-08
1.5475037e-07
2.7749012e-05
6.1793584e-08
1.5075443e-07
2.7628253e-05
6.1764807e-08
1.4690557e-07
2.7510319e-05
6.172098e-08
1.4319662e-07
2.7395105e-05
6.1662098e-08
1.3962085e-07
2.728251e-05
6.1588592e-08
1.3617198e-07
2.7172439e-05
6.1501051e-08
1.3284423e-07
2.7064802e-05
6.1399997e-08
1.2963194e-07
2.6959511e-05
6.1285957e-08
1.2652993e-07
2.6856486e-05
6.1159561e-08
1.2353326e-07
2.6755649e-05
6.1021342e-08
1.2063729e-07
2.6656924e-05
6.0871875e-08
1.1783765e-07
2.6560242e-05
6.0711709e-08
1.1513015e-07
2.6465535e-05
6.0541375e-08
1.1251078e-07
2.6372738e-05
6.0361334e-08
1.0997578e-07
2.6281791e-05
6.0171947e-08
1.0752158e-07
2.6192636e-05
5.9973548e-08
1.051447e-07
2.6105215e-05
5.9766318e-08
1.0284182e-07
2.6019477e-05
5.9550292e-08
1.0060971e-07
2.5935371e-05
5.9325161e-08
9.8445273e-08
2.585285e-05
5.9090517e-08
9.6345395e-08
2.5771868e-05
5.8845495e-08
9.4306916e-08
2.5692384e-05
5.8588977e-08
9.2326711e-08
2.5614357e-05
5.8319794e-08
9.0401412e-08
2.5537753e-05
5.8037042e-08
8.8527306e-08
2.5462539e-05
5.7741636e-08
8.6700214e-08
2.5388689e-05
5.743842e-08
8.4915173e-08
2.5316184e-05
5.7141425e-08
8.3166636e-08
2.5245017e-05
5.6882579e-08
8.1449622e-08
2.51752e-05
5.6726051e-08
7.9765797e-08
2.510677e-05
5.6787931e-08
7.8149187e-08
2.5039729e-05
5.7251582e-08
7.6780983e-08
2.4973573e-05
5.8330929e-08
7.6510228e-08
2.4906079e-05
5.9989467e-08
7.9732183e-08
6.0714996e-08
1.1287823e-07
0.00010503672
9.0789371e-07
6.5005614e-06
9.9140653e-05
1.6524914e-06
6.6166801e-06
9.3788329e-05
2.0825242e-06
6.1717217e-06
8.8708526e-05
2.2549373e-06
5.91053e-06
8.3909682e-05
2.2784039e-06
5.6151748e-06
7.9437109e-05
2.2074821e-06
5.2497564e-06
7.5296201e-05
2.0645348e-06
4.8553893e-06
7.1474034e-05
1.8722543e-06
4.4605969e-06
6.7955013e-05
1.6547667e-06
4.0771269e-06
6.4723621e-05
1.4313505e-06
3.7107669e-06
6.1764423e-05
1.2154297e-06
3.3655007e-06
5.9062056e-05
1.015864e-06
3.0438911e-06
5.6601108e-05
8.3782746e-07
2.7471548e-06
5.4365944e-05
6.8344649e-07
2.475497e-06
5.2340648e-05
5.525853e-07
2.2284383e-06
5.0509125e-05
4.436655e-07
2.0050361e-06
4.8855299e-05
3.5433456e-07
1.8040352e-06
4.7363353e-05
2.8193589e-07
1.6239821e-06
4.6017963e-05
2.2381345e-07
1.4633127e-06
4.4804502e-05
1.7749382e-07
1.3204181e-06
4.3709199e-05
1.4078088e-07
1.1936935e-06
4.2719248e-05
1.1179155e-07
1.081575e-06
4.1822875e-05
8.8954516e-08
9.8256583e-07
4.1009364e-05
7.098798e-08
8.9525472e-07
4.0269054e-05
5.6861825e-08
8.183238e-07
3.9593306e-05
4.5719126e-08
7.5058474e-07
3.8974405e-05
3.6977874e-08
6.9093436e-07
3.8405585e-05
3.0067384e-08
6.3838633e-07
3.7880869e-05
2.4650853e-08
5.9204241e-07
3.7395029e-05
2.0439976e-08
5.5110607e-07
3.6943514e-05
1.7190266e-08
5.1487714e-07
3.6522366e-05
1.471672e-08
4.8273958e-07
3.6128148e-05
1.2874767e-08
4.5415393e-07
3.5757883e-05
1.1549903e-08
4.2864945e-07
3.5408991e-05
1.0650788e-08
4.0581705e-07
3.5079238e-05
1.010363e-08
3.8530228e-07
3.4766689e-05
9.8482635e-09
3.6679879e-07
3.4469668e-05
9.8350895e-09
3.5004231e-07
3.4186716e-05
1.0022921e-08
3.348055e-07
3.3916567e-05
1.0377021e-08
3.2089287e-07
3.3658116e-05
1.0868071e-08
3.0813658e-07
3.3410395e-05
1.1470976e-08
2.9639283e-07
3.3172556e-05
1.2164253e-08
2.8553828e-07
3.2943852e-05
1.292932e-08
2.7546716e-07
3.2723625e-05
1.3750168e-08
2.6608891e-07
3.2511286e-05
1.4613096e-08
2.573257e-07
3.2306316e-05
1.5506268e-08
2.4911065e-07
3.2108246e-05
1.641962e-08
2.4138622e-07
3.1916658e-05
1.7344671e-08
2.341027e-07
3.1731171e-05
1.8274329e-08
2.2721713e-07
3.1551444e-05
1.920316e-08
2.2069214e-07
3.1377162e-05
2.012771e-08
2.1449506e-07
3.1208038e-05
2.1048634e-08
2.0859678e-07
3.10438e-05
2.1972762e-08
2.0297057e-07
3.0884232e-05
2.2827836e-08
1.9760737e-07
3.0729103e-05
2.3662946e-08
1.9248229e-07
3.05782e-05
2.4489987e-08
1.8757383e-07
3.0431331e-05
2.529628e-08
1.8286764e-07
3.0288318e-05
2.6077996e-08
1.7835076e-07
3.0148994e-05
2.6834299e-08
1.7401108e-07
3.0013202e-05
2.7564666e-08
1.6983755e-07
2.9880797e-05
2.8268977e-08
1.6582026e-07
2.975164e-05
2.8947446e-08
1.6195017e-07
2.96256e-05
2.9600773e-08
1.5821901e-07
2.9502557e-05
3.0228578e-08
1.5461921e-07
2.9382396e-05
3.0823614e-08
1.5114467e-07
2.9265007e-05
3.1393129e-08
1.4778877e-07
2.9150287e-05
3.1939597e-08
1.4454536e-07
2.9038137e-05
3.2461883e-08
1.4140901e-07
2.8928465e-05
3.2960057e-08
1.383746e-07
2.8821181e-05
3.3434708e-08
1.3543748e-07
2.8716203e-05
3.3886347e-08
1.3259329e-07
2.8613449e-05
3.4315556e-08
1.2983786e-07
2.8512845e-05
3.4722889e-08
1.2716737e-07
2.8414317e-05
3.510898e-08
1.2457816e-07
2.8317797e-05
3.5474474e-08
1.2206681e-07
2.8223219e-05
3.5819923e-08
1.1963009e-07
2.813052e-05
3.6145933e-08
1.1726494e-07
2.803964e-05
3.6453113e-08
1.1496841e-07
2.7950522e-05
3.6741899e-08
1.1273774e-07
2.7863111e-05
3.7012831e-08
1.1057027e-07
2.7777354e-05
3.7266266e-08
1.0846343e-07
2.7693204e-05
3.7502496e-08
1.0641472e-07
2.761061e-05
3.7721624e-08
1.0442174e-07
2.752953e-05
3.7923561e-08
1.02482e-07
2.744992e-05
3.8108012e-08
1.0059306e-07
2.7371738e-05
3.8274298e-08
9.8752307e-08
2.7294949e-05
3.8421566e-08
9.6956907e-08
2.7219516e-05
3.8548729e-08
9.5203633e-08
2.714541e-05
3.8655123e-08
9.3488579e-08
2.7072603e-05
3.8741134e-08
9.180695e-08
2.7001079e-05
3.8810276e-08
9.0152314e-08
2.6930832e-05
3.8872148e-08
8.851657e-08
2.6861877e-05
3.8947391e-08
8.689052e-08
2.679426e-05
3.9073525e-08
8.5269181e-08
2.6728065e-05
3.9306935e-08
8.3675904e-08
2.6663337e-05
3.9708348e-08
8.227117e-08
2.659956e-05
4.0272006e-08
8.1836168e-08
2.6534295e-05
4.0698053e-08
8.4555712e-08
3.9620856e-08
1.1507132e-07
0.00010494757
5.6811083e-07
6.5033076e-06
9.8925416e-05
1.0462983e-06
6.6283516e-06
9.3480449e-05
1.3439844e-06
6.1835065e-06
8.8341777e-05
1.4751324e-06
5.9184763e-06
8.3502084e-05
1.4993911e-06
5.6187065e-06
7.9004057e-05
1.4572411e-06
5.2482679e-06
7.4853978e-05
1.3667382e-06
4.8478756e-06
7.1037378e-05
1.2423974e-06
4.4464569e-06
6.7536063e-05
1.0997693e-06
4.0563128e-06
6.4331998e-05
9.5192361e-07
3.6834909e-06
6.1407318e-05
8.0805756e-07
3.3320524e-06
5.8744339e-05
6.7422202e-07
3.0046209e-06
5.6325632e-05
5.5404397e-07
2.7024907e-06
5.4133973e-05
4.4916746e-07
2.4259383e-06
5.2152298e-05
3.5972401e-07
2.174536e-06
5.0363747e-05
2.8484512e-07
1.9473717e-06
4.875178e-05
2.2310004e-07
1.7432015e-06
4.7300339e-05
1.7281166e-07
1.5605647e-06
4.5994012e-05
1.3226572e-07
1.3978748e-06
4.4818177e-05
9.9840027e-08
1.2534891e-06
4.3759121e-05
7.4075613e-08
1.1257614e-06
4.2804123e-05
5.3707633e-08
1.0130814e-06
4.1941503e-05
3.7671213e-08
9.1390375e-07
4.1160627e-05
2.5096465e-08
8.2676733e-07
4.0451891e-05
1.5294156e-08
7.5030388e-07
3.980679e-05
7.5281834e-09
6.8329173e-07
3.9217543e-05
1.672755e-09
6.2455201e-07
3.8677513e-05
-3.033113e-09
5.7313082e-07
3.8180739e-05
-6.6486853e-09
5.2807354e-07
3.7722004e-05
-9.3594935e-09
4.885345e-07
3.7296777e-05
-1.1371817e-08
4.5378926e-07
3.6901112e-05
-1.2818219e-08
4.2319914e-07
3.6531588e-05
-1.3805283e-08
3.962048e-07
3.6185236e-05
-1.4417509e-08
3.7231876e-07
3.5859491e-05
-1.4721872e-08
3.5111778e-07
3.5552132e-05
-1.4772624e-08
3.3223582e-07
3.5261237e-05
-1.4613895e-08
3.1535731e-07
3.4985143e-05
-1.4282159e-08
3.0021091e-07
3.472241e-05
-1.3807671e-08
2.8656378e-07
3.4471787e-05
-1.3215875e-08
2.7421632e-07
3.4232185e-05
-1.2528169e-08
2.6299771e-07
3.4002657e-05
-1.176278e-08
2.5276175e-07
3.3782373e-05
-1.0935216e-08
2.4338338e-07
3.3570606e-05
-1.0058748e-08
2.3475557e-07
3.3366714e-05
-9.1447048e-09
2.2678673e-07
3.3170131e-05
-8.2027883e-09
2.1939832e-07
3.2980356e-05
-7.2412167e-09
2.1252298e-07
3.279694e-05
-6.2668821e-09
2.0610283e-07
3.2619482e-05
-5.2855518e-09
2.0008783e-07
3.2447623e-05
-4.301811e-09
1.944348e-07
3.228104e-05
-3.3190342e-09
1.8910586e-07
3.2119438e-05
-2.3383075e-09
1.8406734e-07
3.1962554e-05
-1.3530513e-09
1.7928646e-07
3.1810075e-05
-2.763551e-10
1.7472765e-07
3.1661878e-05
5.8581717e-10
1.7043906e-07
3.1517732e-05
1.4356114e-09
1.6637295e-07
3.1377429e-05
2.3038166e-09
1.6248961e-07
3.1240792e-05
3.1586472e-09
1.5877487e-07
3.1107656e-05
3.9969755e-09
1.5521717e-07
3.0977867e-05
4.8171509e-09
1.5180548e-07
3.0851284e-05
5.6179725e-09
1.4852969e-07
3.0727774e-05
6.3990276e-09
1.4538081e-07
3.0607209e-05
7.1609271e-09
1.4235056e-07
3.0489473e-05
7.9059368e-09
1.3943121e-07
3.037445e-05
8.6357513e-09
1.3661578e-07
3.0262049e-05
9.3206705e-09
1.3390397e-07
3.0152163e-05
9.9938364e-09
1.3128566e-07
3.0044697e-05
1.0650395e-08
1.2875513e-07
2.9939564e-05
1.1286738e-08
1.2630829e-07
2.983668e-05
1.19032e-08
1.2394088e-07
2.9735965e-05
1.2500157e-08
1.2164886e-07
2.9637345e-05
1.3077909e-08
1.1942846e-07
2.9540748e-05
1.3636715e-08
1.1727617e-07
2.9446105e-05
1.4177021e-08
1.1518883e-07
2.9353352e-05
1.4699176e-08
1.1316338e-07
2.9262425e-05
1.5203526e-08
1.1119702e-07
2.9173268e-05
1.5690498e-08
1.0928709e-07
2.9085822e-05
1.6160413e-08
1.0743108e-07
2.9000035e-05
1.6613581e-08
1.0562663e-07
2.8915855e-05
1.7050396e-08
1.0387155e-07
2.8833233e-05
1.747113e-08
1.0216366e-07
2.8752123e-05
1.7875984e-08
1.0050083e-07
2.8672479e-05
1.8265117e-08
9.8881116e-08
2.8594259e-05
1.8638563e-08
9.7302502e-08
2.8517424e-05
1.8996214e-08
9.5762931e-08
2.8441934e-05
1.9337812e-08
9.4260339e-08
2.8367753e-05
1.9662829e-08
9.2792336e-08
2.8294848e-05
1.9970471e-08
9.1356238e-08
2.8223187e-05
2.0260013e-08
8.9948836e-08
2.8152746e-05
2.0530705e-08
8.8565898e-08
2.8083503e-05
2.0782621e-08
8.7201811e-08
2.8015447e-05
2.1017554e-08
8.5848707e-08
2.7948582e-05
2.1240735e-08
8.4495826e-08
2.7882937e-05
2.1462713e-08
8.3129488e-08
2.7818574e-05
2.1699974e-08
8.1736532e-08
2.7755588e-05
2.1969287e-08
8.0324379e-08
2.7694014e-05
2.2266174e-08
7.901607e-08
2.7633299e-05
2.2506293e-08
7.8480636e-08
2.7571004e-05
2.2393429e-08
8.0599444e-08
2.0993083e-08
1.0779945e-07
0.00010489986
2.7443379e-07
6.5049155e-06
9.8802772e-05
5.0716635e-07
6.6362236e-06
9.329591e-05
6.5854975e-07
6.1922972e-06
8.8116302e-05
7.2902544e-07
5.9257148e-06