/*--------------------------------*- C++ -*----------------------------------*\
  =========                 |
  \\      /  F ield         | OpenFOAM: The Open Source CFD Toolbox
   \\    /   O peration     | Website:  https://openfoam.org
    \\  /    A nd           | Version:  7
     \\/     M anipulation  |
\*---------------------------------------------------------------------------*/
FoamFile
{
    version     2.0;
    format      ascii;
    class       surfaceScalarField;
    location    "2650/water";
    object      phi;
}
// * * * * * * * * * * * * * * * * * * * * * * * * * * * * * * * * * * * * * //

dimensions      [1 0 -1 0 0 0 0];

internalField   nonuniform List<scalar> 
156660
(
9.905724e-05
6.0010402e-06
6.0528092e-06
8.6847497e-05
6.0555113e-06
6.1542307e-06
7.5687891e-05
5.5111362e-06
5.6484701e-06
6.5441704e-05
5.0404181e-06
5.2057689e-06
5.6267661e-05
4.4956436e-06
4.6783991e-06
4.8318019e-05
3.8797648e-06
4.0698777e-06
4.1624776e-05
3.2524448e-06
3.4407981e-06
3.6124897e-05
2.660462e-06
2.839417e-06
3.1692235e-05
2.1345126e-06
2.2981489e-06
2.8162841e-05
1.6926975e-06
1.8366964e-06
2.5361437e-05
1.3399933e-06
1.4614113e-06
2.3124664e-05
1.0698477e-06
1.1669256e-06
2.1315127e-05
8.6875419e-07
9.4078225e-07
1.9825714e-05
7.2110065e-07
7.6831273e-07
1.8577278e-05
6.1248247e-07
6.3595305e-07
1.7513255e-05
5.3125219e-07
5.327715e-07
1.6593744e-05
4.6879723e-07
4.5071348e-07
1.5790433e-05
4.1913717e-07
3.8417389e-07
1.5082784e-05
3.782907e-07
3.2935854e-07
1.4455417e-05
3.4367128e-07
2.8369563e-07
1.3896409e-05
3.1361409e-07
2.4539332e-07
1.339622e-05
2.8704448e-07
2.1314453e-07
1.2947015e-05
2.6326031e-07
1.8594508e-07
1.2542237e-05
2.4179367e-07
1.629846e-07
1.2176318e-05
2.223221e-07
1.435969e-07
1.1844484e-05
2.0461481e-07
1.272188e-07
1.1542609e-05
1.8849494e-07
1.1337972e-07
1.1267116e-05
1.7381575e-07
1.0167794e-07
1.1014892e-05
1.6046272e-07
9.1760832e-08
1.0783252e-05
1.4833966e-07
8.3300616e-08
1.0569851e-05
1.3734902e-07
7.605214e-08
1.0372614e-05
1.2738861e-07
6.9848332e-08
1.0189731e-05
1.1836808e-07
6.4514825e-08
1.001963e-05
1.1020447e-07
5.9896629e-08
9.8609388e-06
1.0281922e-07
5.5871665e-08
9.7124594e-06
9.6137959e-08
5.234138e-08
9.5731439e-06
9.0091165e-08
4.9224352e-08
9.4420759e-06
8.4614468e-08
4.6453587e-08
9.3184531e-06
7.9648658e-08
4.3974124e-08
9.2015723e-06
7.5139717e-08
4.1741059e-08
9.0908166e-06
7.1038153e-08
3.9717554e-08
8.9856432e-06
6.7301137e-08
3.7872305e-08
8.8855708e-06
6.3894254e-08
3.6178154e-08
8.7901757e-06
6.0780101e-08
3.4614976e-08
8.6990829e-06
5.7926172e-08
3.3166653e-08
8.6119591e-06
5.5303707e-08
3.1820096e-08
8.5285072e-06
5.2887449e-08
3.0564403e-08
8.4484619e-06
5.0655072e-08
2.9390307e-08
8.3715848e-06
4.8587017e-08
2.8289976e-08
8.2976614e-06
4.6666186e-08
2.7257173e-08
8.2264975e-06
4.4877462e-08
2.62864e-08
8.1579202e-06
4.3208774e-08
2.536852e-08
8.0917731e-06
4.1649042e-08
2.449807e-08
8.0279108e-06
4.018696e-08
2.3675387e-08
7.9662006e-06
3.8812698e-08
2.2897548e-08
7.9065219e-06
3.7518399e-08
2.2160245e-08
7.8487639e-06
3.6297838e-08
2.1460189e-08
7.7928242e-06
3.5145136e-08
2.0794609e-08
7.7386083e-06
3.4054678e-08
2.0161153e-08
7.6860293e-06
3.3021374e-08
1.95577e-08
7.6350063e-06
3.2040803e-08
1.8982269e-08
7.5854641e-06
3.1109055e-08
1.8433067e-08
7.537333e-06
3.0222592e-08
1.7908493e-08
7.4905478e-06
2.9378238e-08
1.7407006e-08
7.4450476e-06
2.8573022e-08
1.6927206e-08
7.4007756e-06
2.7804236e-08
1.6467787e-08
7.3576783e-06
2.7069611e-08
1.6027635e-08
7.3157056e-06
2.636705e-08
1.5605632e-08
7.2748103e-06
2.5694654e-08
1.5200672e-08
7.2349479e-06
2.505055e-08
1.4811842e-08
7.1960766e-06
2.4433089e-08
1.4438203e-08
7.158157e-06
2.3840682e-08
1.4078927e-08
7.1211518e-06
2.327193e-08
1.3733321e-08
7.0850258e-06
2.272549e-08
1.3400528e-08
7.0497456e-06
2.2200204e-08
1.3079944e-08
7.0152798e-06
2.1694929e-08
1.2770894e-08
6.9815985e-06
2.1208584e-08
1.2472752e-08
6.9486733e-06
2.0740227e-08
1.2184921e-08
6.9164775e-06
2.0288968e-08
1.1906774e-08
6.8849858e-06
1.9853962e-08
1.1637849e-08
6.8541739e-06
1.9434376e-08
1.1377456e-08
6.8240193e-06
1.9029462e-08
1.1125116e-08
6.7945006e-06
1.8638519e-08
1.0880242e-08
6.7655975e-06
1.826078e-08
1.0642321e-08
6.7372912e-06
1.7895554e-08
1.0410762e-08
6.709564e-06
1.7542109e-08
1.0185089e-08
6.6823995e-06
1.719963e-08
9.9648564e-09
6.6557824e-06
1.6867275e-08
9.7498063e-09
6.6296983e-06
1.6544134e-08
9.5399574e-09
6.604133e-06
1.6229266e-08
9.3359993e-09
6.5790714e-06
1.5921981e-08
9.1396941e-09
6.554494e-06
1.5622335e-08
8.9550819e-09
6.5303708e-06
1.5332558e-08
8.7906648e-09
6.5066467e-06
1.5060429e-08
8.6636051e-09
6.4832094e-06
1.4827803e-08
8.6095051e-09
6.4598103e-06
1.4693048e-08
8.7060231e-09
6.4358387e-06
1.4826403e-08
9.1451375e-09
6.4096302e-06
1.5741739e-08
1.0466743e-08
6.3782854e-06
1.8026559e-08
1.3318221e-08
3.2300202e-08
2.7923532e-08
0.00010646494
4.1872385e-06
6.4599816e-06
0.0001002019
5.695418e-06
6.6231353e-06
9.3659588e-05
5.7790388e-06
6.2744098e-06
8.7011589e-05
5.6514782e-06
6.0369387e-06
8.0422927e-05
5.3669119e-06
5.7173941e-06
7.4094022e-05
4.9022832e-06
5.3063862e-06
6.8167026e-05
4.3278136e-06
4.8516273e-06
6.2722565e-05
3.717891e-06
4.387032e-06
5.7799049e-05
3.1243144e-06
3.9337145e-06
5.3403345e-05
2.5820689e-06
3.5063329e-06
4.9517402e-05
2.1121062e-06
3.1138299e-06
4.6105482e-05
1.7220197e-06
2.7597473e-06
4.3121558e-05
1.4089355e-06
2.4437429e-06
4.0515558e-05
1.1637552e-06
2.163346e-06
3.8237948e-05
9.7485853e-07
1.9152336e-06
3.6242683e-05
8.3055974e-07
1.6959573e-06
3.4488759e-05
7.20437e-07
1.5022849e-06
3.2940716e-05
6.3586295e-07
1.3313172e-06
3.1568463e-05
5.7005004e-07
1.1804931e-06
3.0346733e-05
5.1784896e-07
1.0475522e-06
2.9254398e-05
4.7545952e-07
9.3049032e-07
2.8273782e-05
4.4013958e-07
8.2752025e-07
2.7390054e-05
4.0994894e-07
7.3704008e-07
2.6590699e-05
3.8353954e-07
6.5760854e-07
2.5865102e-05
3.5998887e-07
5.8793072e-07
2.5204197e-05
3.3867629e-07
5.268426e-07
2.4600205e-05
3.1918357e-07
4.733035e-07
2.4046429e-05
3.0120188e-07
4.2639015e-07
2.3537073e-05
2.8455205e-07
3.8526714e-07
2.3067119e-05
2.69111e-07
3.4918242e-07
2.2632208e-05
2.5478166e-07
3.1747788e-07
2.2228528e-05
2.4147381e-07
2.8959533e-07
2.1852744e-05
2.2911071e-07
2.6504124e-07
2.1501947e-05
2.1762892e-07
2.4337257e-07
2.1173591e-05
2.0696952e-07
2.2420576e-07
2.0865444e-05
1.9707567e-07
2.0720868e-07
2.0575549e-05
1.8789251e-07
1.92094e-07
2.0302183e-05
1.7936723e-07
1.7861344e-07
2.0043829e-05
1.7144911e-07
1.6655324e-07
1.979915e-05
1.640898e-07
1.5572941e-07
1.956696e-05
1.572438e-07
1.4598401e-07
1.934621e-05
1.5086893e-07
1.3718215e-07
1.9135969e-05
1.4492652e-07
1.2920881e-07
1.8935407e-05
1.3937907e-07
1.2196308e-07
1.8743783e-05
1.3419227e-07
1.1535762e-07
1.8560435e-05
1.2933509e-07
1.0931725e-07
1.8384766e-05
1.2477908e-07
1.0377716e-07
1.8216241e-05
1.204985e-07
9.8681292e-08
1.8054377e-05
1.1647013e-07
9.3981321e-08
1.7898734e-05
1.1267291e-07
8.9635388e-08
1.7748917e-05
1.0908821e-07
8.5606989e-08
1.7604563e-05
1.0570004e-07
8.1862409e-08
1.7465345e-05
1.0249338e-07
7.8373288e-08
1.7330962e-05
9.9452976e-08
7.5116996e-08
1.7201138e-05
9.6564388e-08
7.2072734e-08
1.7075619e-05
9.3816623e-08
6.9221181e-08
1.695417e-05
9.12011e-08
6.6545138e-08
1.6836577e-05
8.8709086e-08
6.4029554e-08
1.6722638e-05
8.6331954e-08
6.1661069e-08
1.661217e-05
8.4061758e-08
5.9427717e-08
1.6505001e-05
8.1891561e-08
5.7318833e-08
1.640097e-05
7.981494e-08
5.5324826e-08
1.6299929e-05
7.782617e-08
5.3437133e-08
1.620174e-05
7.5919904e-08
5.164792e-08
1.6106272e-05
7.4091041e-08
4.9950136e-08
1.6013404e-05
7.2334989e-08
4.8337381e-08
1.5923022e-05
7.0647718e-08
4.6803842e-08
1.5835019e-05
6.9025753e-08
4.5344285e-08
1.5749294e-05
6.7465544e-08
4.3953697e-08
1.5665753e-05
6.5963728e-08
4.2627693e-08
1.5584307e-05
6.4517338e-08
4.1362211e-08
1.5504871e-05
6.3123426e-08
4.0153344e-08
1.5427365e-05
6.1779333e-08
3.8997804e-08
1.5351716e-05
6.0482544e-08
3.7892311e-08
1.5277852e-05
5.9230806e-08
3.6833836e-08
1.5205705e-05
5.8022008e-08
3.5819732e-08
1.5135212e-05
5.6854014e-08
3.4847345e-08
1.5066313e-05
5.5724978e-08
3.3914356e-08
1.499895e-05
5.4633138e-08
3.3018397e-08
1.493307e-05
5.3576739e-08
3.2157426e-08
1.4868621e-05
5.2554209e-08
3.1329404e-08
1.4805554e-05
5.1563981e-08
3.0532437e-08
1.4743823e-05
5.060447e-08
2.9764692e-08
1.4683386e-05
4.9674265e-08
2.9024423e-08
1.4624199e-05
4.8771792e-08
2.8309897e-08
1.4566226e-05
4.7895458e-08
2.7619589e-08
1.4509431e-05
4.7043514e-08
2.695195e-08
1.4453778e-05
4.621413e-08
2.6305764e-08
1.4399237e-05
4.540541e-08
2.567985e-08
1.4345777e-05
4.4615698e-08
2.5073743e-08
1.4293367e-05
4.3844234e-08
2.4487675e-08
1.4241972e-05
4.3092853e-08
2.3923756e-08
1.4191548e-05
4.2369898e-08
2.338709e-08
1.4142019e-05
4.1699292e-08
2.2889646e-08
1.4093249e-05
4.1141623e-08
2.2456627e-08
1.4044951e-05
4.0844598e-08
2.2146574e-08
1.3996485e-05
4.1169171e-08
2.2123038e-08
1.3946229e-05
4.3012281e-08
2.2985427e-08
1.389015e-05
4.8540241e-08
2.5565845e-08
6.3281555e-08
5.0000861e-08
0.00010603565
2.7876425e-06
6.4750379e-06
0.00010074799
4.4145413e-06
6.5685292e-06
9.5493515e-05
4.8594028e-06
6.1741158e-06
9.0256432e-05
4.930369e-06
5.9581921e-06
8.5101366e-05
4.8311767e-06
5.6908011e-06
8.0102875e-05
4.5561761e-06
5.3445981e-06
7.5322251e-05
4.1469521e-06
4.9614853e-06
7.0803266e-05
3.6678926e-06
4.5689837e-06
6.6576264e-05
3.1701903e-06
4.1811255e-06
6.2660725e-05
2.690011e-06
3.8075976e-06
5.9065443e-05
2.2519319e-06
3.4554566e-06
5.5788936e-05
1.8697304e-06
3.1287958e-06
5.2820978e-05
1.5477473e-06
2.8291458e-06
5.014479e-05
1.2836302e-06
2.5563139e-06
4.7739304e-05
1.07123e-06
2.3091141e-06
4.5581183e-05
9.0281505e-07
2.0858661e-06
4.3646423e-05
7.704878e-07
1.884709e-06
4.1911533e-05
6.669737e-07
1.7037793e-06
4.0354306e-05
5.8598198e-07
1.5412951e-06
3.8954268e-05
5.2230221e-07
1.3955849e-06
3.769288e-05
4.7175604e-07
1.265091e-06
3.6553576e-05
4.3107984e-07
1.1483634e-06
3.552169e-05
3.9778205e-07
1.0440533e-06
3.4584322e-05
3.6999882e-07
9.5090828e-07
3.3730181e-05
3.4635982e-07
8.6777017e-07
3.2949411e-05
3.2587761e-07
7.9356872e-07
3.2233419e-05
3.0784048e-07
7.2733485e-07
3.1574711e-05
2.9172985e-07
6.6818105e-07
3.0966769e-05
2.7719266e-07
6.153013e-07
3.0403928e-05
2.6398102e-07
5.6797022e-07
2.9881259e-05
2.5190848e-07
5.2554317e-07
2.9394455e-05
2.4082712e-07
4.8745002e-07
2.8939761e-05
2.3062158e-07
4.5318328e-07
2.8513895e-05
2.2120147e-07
4.2229386e-07
2.8113985e-05
2.1249191e-07
3.9438673e-07
2.7737518e-05
2.0442795e-07
3.691149e-07
2.7382285e-05
1.9695195e-07
3.4617385e-07
2.7046344e-05
1.9001177e-07
3.2529679e-07
2.6727982e-05
1.8355991e-07
3.0625042e-07
2.6425689e-05
1.7755271e-07
2.8883084e-07
2.6138123e-05
1.7195003e-07
2.7285982e-07
2.5864095e-05
1.6671516e-07
2.5818181e-07
2.5602546e-05
1.6181456e-07
2.4466089e-07
2.535253e-05
1.5721708e-07
2.3217765e-07
2.5113201e-05
1.5289441e-07
2.2062726e-07
2.4883797e-05
1.4882094e-07
2.0991772e-07
2.4663634e-05
1.4497363e-07
1.9996813e-07
2.4452094e-05
1.413318e-07
1.9070709e-07
2.4248615e-05
1.3787694e-07
1.8207153e-07
2.405269e-05
1.3459264e-07
1.7400572e-07
2.3863854e-05
1.3146463e-07
1.6645988e-07
2.3681684e-05
1.2848056e-07
1.5938924e-07
2.3505794e-05
1.2562917e-07
1.5275412e-07
2.3335829e-05
1.2289869e-07
1.465197e-07
2.3171462e-05
1.2027637e-07
1.4065461e-07
2.3012394e-05
1.1775474e-07
1.3513024e-07
2.2858345e-05
1.1532973e-07
1.2992045e-07
2.2709057e-05
1.1299539e-07
1.2500175e-07
2.2564291e-05
1.1074517e-07
1.203529e-07
2.2423824e-05
1.0857351e-07
1.1595461e-07
2.2287451e-05
1.064755e-07
1.1178923e-07
2.2154978e-05
1.0444704e-07
1.0784078e-07
2.2026226e-05
1.0248421e-07
1.040946e-07
2.1901025e-05
1.0058353e-07
1.0053715e-07
2.1779218e-05
9.8741521e-08
9.7156163e-08
2.1660658e-05
9.6954879e-08
9.3940293e-08
2.1545205e-05
9.5221274e-08
9.0879047e-08
2.1432729e-05
9.3538807e-08
8.7962841e-08
2.1323107e-05
9.1905307e-08
8.5182606e-08
2.1216222e-05
9.0318526e-08
8.2530182e-08
2.1111965e-05
8.8776383e-08
7.9997891e-08
2.1010233e-05
8.7277129e-08
7.7578643e-08
2.0910927e-05
8.5818969e-08
7.5265868e-08
2.0813956e-05
8.4400311e-08
7.3053459e-08
2.0719232e-05
8.3019696e-08
7.0935678e-08
2.0626671e-05
8.1675654e-08
6.8907207e-08
2.0536195e-05
8.0366859e-08
6.6963121e-08
2.0447729e-05
7.9091979e-08
6.509876e-08
2.0361203e-05
7.7849841e-08
6.3309758e-08
2.0276548e-05
7.6639238e-08
6.1592048e-08
2.0193702e-05
7.5458977e-08
5.9941747e-08
2.0112602e-05
7.4307967e-08
5.8355248e-08
2.0033193e-05
7.3184922e-08
5.6829067e-08
1.9955419e-05
7.2088596e-08
5.5359972e-08
1.9879228e-05
7.1017615e-08
5.3944856e-08
1.9804572e-05
6.9970468e-08
5.2580729e-08
1.9731406e-05
6.894529e-08
5.1264824e-08
1.9659685e-05
6.7940126e-08
4.9994396e-08
1.9589371e-05
6.6953036e-08
4.8767047e-08
1.9520423e-05
6.5982356e-08
4.7580546e-08
1.9452807e-05
6.502802e-08
4.6433083e-08
1.9386482e-05
6.4094106e-08
4.5323747e-08
1.9321404e-05
6.3194697e-08
4.425305e-08
1.9257511e-05
6.236634e-08
4.3225221e-08
1.9194705e-05
6.1695172e-08
4.2253158e-08
1.9132798e-05
6.1374068e-08
4.1377426e-08
1.9071394e-05
6.1822402e-08
4.0750682e-08
1.9009424e-05
6.3924742e-08
4.1057629e-08
1.8944661e-05
6.9304673e-08
4.3998846e-08
7.9170924e-08
7.4661536e-08
0.0001054937
1.9169871e-06
6.4880406e-06
0.00010005365
3.2729596e-06
6.5816334e-06
9.4926077e-05
3.8288995e-06
6.1580776e-06
8.9946373e-05
3.9838109e-06
5.9262629e-06
8.5163276e-05
3.9595077e-06
5.6547657e-06
8.0619137e-05
3.7899368e-06
5.3103784e-06
7.6329462e-05
3.5015547e-06
4.9350725e-06
7.230016e-05
3.1412013e-06
4.5559928e-06
6.8534206e-05
2.7514802e-06
4.1846641e-06
6.5032983e-05
2.3633493e-06
3.8278852e-06
6.1795789e-05
1.9984143e-06
3.490711e-06
5.8818843e-05
1.670376e-06
3.176301e-06
5.6094718e-05
1.3858295e-06
2.886043e-06
5.3612488e-05
1.1457945e-06
2.6200649e-06
5.1358373e-05
9.4764116e-07
2.3777043e-06
4.9316593e-05
7.8676784e-07
2.1578272e-06
4.7470246e-05
6.5779545e-07
1.9590391e-06
4.5802069e-05
5.5532541e-07
1.7798252e-06
4.4295042e-05
4.7437113e-07
1.6186378e-06
4.293283e-05
4.1056668e-07
1.473948e-06
4.1700078e-05
3.6023237e-07
1.3442759e-06
4.0582591e-05
3.2035742e-07
1.2282094e-06
3.956742e-05
2.8853736e-07
1.1244154e-06
3.8642881e-05
2.6289063e-07
1.0316467e-06
3.7798527e-05
2.4196984e-07
9.48744e-07
3.7025076e-05
2.2467702e-07
8.7465169e-07
3.6314324e-05
2.1018901e-07
8.0840407e-07
3.5659057e-05
1.9788605e-07
7.4911042e-07
3.5052961e-05
1.8731584e-07
6.9597282e-07
3.449052e-05
1.7814868e-07
6.4827382e-07
3.3966922e-05
1.7013169e-07
6.0537442e-07
3.3477973e-05
1.6306727e-07
5.6670866e-07
3.3020016e-05
1.5680295e-07
5.3177542e-07
3.2589865e-05
1.5122052e-07
5.0013245e-07
3.218474e-05
1.462256e-07
4.7139142e-07
3.1802215e-05
1.4174074e-07
4.4521235e-07
3.1440168e-05
1.3770094e-07
4.2129809e-07
3.1096739e-05
1.3405094e-07
3.9938924e-07
3.0770297e-05
1.3074291e-07
3.7925953e-07
3.0459402e-05
1.2773518e-07
3.6071196e-07
3.0162787e-05
1.2499095e-07
3.4357478e-07
2.9879325e-05
1.2247786e-07
3.2769848e-07
2.960802e-05
1.2016732e-07
3.1295269e-07
2.934798e-05
1.1803378e-07
2.9922352e-07
2.9098408e-05
1.1605459e-07
2.8641137e-07
2.885859e-05
1.1420977e-07
2.7442905e-07
2.8627882e-05
1.1248189e-07
2.6319998e-07
2.8405701e-05
1.1085558e-07
2.5265686e-07
2.819152e-05
1.0931755e-07
2.4274023e-07
2.7984859e-05
1.0785646e-07
2.3339753e-07
2.7785279e-05
1.0646279e-07
2.245821e-07
2.7592378e-05
1.051287e-07
2.1625211e-07
2.740579e-05
1.0384734e-07
2.0837033e-07
2.7225174e-05
1.0261118e-07
2.0090361e-07
2.705022e-05
1.0140748e-07
1.9382257e-07
2.6880641e-05
1.0023386e-07
1.8710043e-07
2.6716166e-05
9.9092342e-08
1.8071225e-07
2.6556546e-05
9.7979999e-08
1.7463556e-07
2.6401548e-05
9.6892563e-08
1.6885014e-07
2.6250957e-05
9.5827092e-08
1.6333741e-07
2.610457e-05
9.4781736e-08
1.5808044e-07
2.5962199e-05
9.3754756e-08
1.5306365e-07
2.5823666e-05
9.274489e-08
1.4827261e-07
2.5688804e-05
9.1751016e-08
1.4369415e-07
2.5557458e-05
9.0771802e-08
1.3931601e-07
2.5429481e-05
8.9805174e-08
1.3512693e-07
2.5304734e-05
8.8851469e-08
1.3111644e-07
2.5183087e-05
8.7911225e-08
1.2727467e-07
2.5064416e-05
8.6983929e-08
1.2359241e-07
2.4948604e-05
8.6068877e-08
1.2006117e-07
2.4835542e-05
8.5165775e-08
1.16673e-07
2.4725124e-05
8.4274323e-08
1.1342047e-07
2.4617252e-05
8.3394278e-08
1.1029656e-07
2.4511832e-05
8.25255e-08
1.072948e-07
2.4408775e-05
8.1667758e-08
1.04409e-07
2.4307997e-05
8.0820985e-08
1.0163341e-07
2.4209416e-05
7.9985045e-08
9.8962598e-08
2.4112956e-05
7.915976e-08
9.6391559e-08
2.4018546e-05
7.8345053e-08
9.3915328e-08
2.3926115e-05
7.7540697e-08
9.1529312e-08
2.3835598e-05
7.6746556e-08
8.9229258e-08
2.3746933e-05
7.5962293e-08
8.7011039e-08
2.366006e-05
7.5187623e-08
8.4870718e-08
2.3574922e-05
7.442195e-08
8.2804529e-08
2.3491466e-05
7.3664627e-08
8.0808922e-08
2.3409641e-05
7.2914641e-08
7.888034e-08
2.33294e-05
7.2170721e-08
7.7015476e-08
2.3250698e-05
7.1431318e-08
7.5211028e-08
2.3173492e-05
7.069487e-08
7.3463629e-08
2.3097745e-05
6.9960172e-08
7.1770099e-08
2.3023418e-05
6.9227974e-08
7.0127025e-08
2.2950477e-05
6.850349e-08
6.8531185e-08
2.2878889e-05
6.780288e-08
6.69797e-08
2.2808619e-05
6.7165054e-08
6.5471598e-08
2.2739625e-05
6.6675251e-08
6.401337e-08
2.267185e-05
6.6507074e-08
6.2642312e-08
2.2605149e-05
6.6990725e-08
6.153237e-08
2.2538888e-05
6.8685991e-08
6.1499905e-08
2.2471121e-05
7.2226953e-08
6.4845123e-08
7.6722806e-08
9.8461296e-08
0.0001051979
1.3340884e-06
6.4961221e-06
9.9496561e-05
2.3731022e-06
6.6011947e-06
9.4262459e-05
2.9019223e-06
6.1610799e-06
8.9251186e-05
3.0856641e-06
5.9094196e-06
8.4493498e-05
3.0947347e-06
5.6224614e-06
8.0033635e-05
2.9846657e-06
5.2651341e-06
7.5876907e-05
2.7790155e-06
4.8792667e-06
7.2014635e-05
2.5106844e-06
4.4927895e-06
6.8436293e-05
2.2128728e-06
4.116949e-06
6.5131387e-05
1.9107259e-06
3.7575291e-06
6.208941e-05
1.6217321e-06
3.4186596e-06
5.9299432e-05
1.3573878e-06
3.1029661e-06
5.6749589e-05
1.1240344e-06
2.8116386e-06
5.4426788e-05
9.2377944e-07
2.5448158e-06
5.2316754e-05
7.5572797e-07
2.3019466e-06
5.0404313e-05
6.1717858e-07
2.0820302e-06
4.8673788e-05
5.045435e-07
1.8837772e-06
4.7109414e-05
4.139718e-07
1.7057274e-06
4.5695713e-05
3.417365e-07
1.5463363e-06
4.4417792e-05
2.8445144e-07
1.4040359e-06
4.3261575e-05
2.3917115e-07
1.2772781e-06
4.2213953e-05
2.0341504e-07
1.1645652e-06
4.1262871e-05
1.7514742e-07
1.0644718e-06
4.039737e-05
1.5273237e-07
9.75659e-07
3.9607583e-05
1.3487531e-07
8.9688146e-07
3.8884688e-05
1.2055565e-07
8.2701641e-07
3.8220848e-05
1.0901088e-07
7.6501853e-07
3.7609155e-05
9.9633829e-08
7.0994487e-07
3.7043542e-05
9.1977446e-08
6.609509e-07
3.6518702e-05
8.5705819e-08
6.1728289e-07
3.6030009e-05
8.0552394e-08
5.7827308e-07
3.5573433e-05
7.6308275e-08
5.4333415e-07
3.5145475e-05
7.2811252e-08
5.1195029e-07
3.4743091e-05
6.9934135e-08
4.8367025e-07
3.4363641e-05
6.7575439e-08
4.5810069e-07
3.4004828e-05
6.5652904e-08
4.3489996e-07
3.3664659e-05
6.409858e-08
4.1377211e-07
3.3341393e-05
6.2855919e-08
3.9446096e-07
3.3033513e-05
6.1877047e-08
3.7674528e-07
3.2739693e-05
6.1121095e-08
3.6043424e-07
3.2458768e-05
6.0553061e-08
3.4536326e-07
3.2189712e-05
6.0142671e-08
3.3139057e-07
3.1931622e-05
5.9863661e-08
3.1839375e-07
3.1683696e-05
5.9693138e-08
3.0626735e-07
3.1445219e-05
5.9611213e-08
2.9492011e-07
3.1215555e-05
5.9600645e-08
2.8427317e-07
3.0994132e-05
5.9646544e-08
2.7425806e-07
3.0780436e-05
5.9736174e-08
2.6481539e-07
3.0574002e-05
5.9858658e-08
2.5589336e-07
3.0374407e-05
6.0004917e-08
2.4744663e-07
3.0181267e-05
6.0167628e-08
2.3943545e-07
2.9994229e-05
6.0341256e-08
2.3182485e-07
2.9812971e-05
6.0521818e-08
2.2458372e-07
2.9637193e-05
6.0704452e-08
2.1768453e-07
2.9466629e-05
6.0867263e-08
2.1110455e-07
2.9301024e-05
6.1017003e-08
2.0482176e-07
2.914014e-05
6.1160887e-08
1.9881571e-07
2.8983756e-05
6.1294954e-08
1.9306838e-07
2.8831669e-05
6.1415495e-08
1.8756386e-07
2.8683688e-05
6.1520958e-08
1.8228764e-07
2.8539633e-05
6.1610585e-08
1.7722636e-07
2.8399336e-05
6.1683806e-08
1.7236786e-07
2.8262639e-05
6.1740505e-08
1.677009e-07
2.8129394e-05
6.1780712e-08
1.6321523e-07
2.7999461e-05
6.1803878e-08
1.5890125e-07
2.7872709e-05
6.1807382e-08
1.5475036e-07
2.7749012e-05
6.1793558e-08
1.507544e-07
2.7628253e-05
6.1764827e-08
1.4690557e-07
2.7510319e-05
6.1720996e-08
1.4319661e-07
2.7395105e-05
6.1662104e-08
1.3962082e-07
2.728251e-05
6.1588602e-08
1.36172e-07
2.7172439e-05
6.1501068e-08
1.3284421e-07
2.7064802e-05
6.1399969e-08
1.2963193e-07
2.6959511e-05
6.1285925e-08
1.2652991e-07
2.6856486e-05
6.1159542e-08
1.2353326e-07
2.6755649e-05
6.1021314e-08
1.206373e-07
2.6656924e-05
6.0871873e-08
1.1783765e-07
2.6560242e-05
6.0711745e-08
1.1513013e-07
2.6465535e-05
6.0541404e-08
1.1251078e-07
2.6372738e-05
6.0361328e-08
1.0997579e-07
2.6281791e-05
6.0171964e-08
1.0752159e-07
2.6192636e-05
5.9973569e-08
1.0514471e-07
2.6105215e-05
5.9766334e-08
1.0284182e-07
2.6019477e-05
5.9550292e-08
1.0060972e-07
2.5935371e-05
5.9325181e-08
9.8445281e-08
2.585285e-05
5.9090508e-08
9.6345389e-08
2.5771868e-05
5.8845514e-08
9.4306938e-08
2.5692384e-05
5.8589018e-08
9.2326743e-08
2.5614357e-05
5.8319835e-08
9.0401446e-08
2.5537753e-05
5.8037073e-08
8.8527324e-08
2.5462539e-05
5.7741599e-08
8.6700216e-08
2.5388689e-05
5.7438389e-08
8.491516e-08
2.5316184e-05
5.7141384e-08
8.316662e-08
2.5245017e-05
5.6882558e-08
8.1449649e-08
2.51752e-05
5.6726026e-08
7.9765815e-08
2.510677e-05
5.6787904e-08
7.8149182e-08
2.5039729e-05
5.7251576e-08
7.678099e-08
2.4973573e-05
5.8330928e-08
7.651025e-08
2.4906079e-05
5.9989461e-08
7.9732176e-08
6.0715008e-08
1.1287823e-07
0.00010503672
9.0789372e-07
6.5005614e-06
9.9140653e-05
1.6524914e-06
6.6166802e-06
9.3788329e-05
2.0825242e-06
6.1717217e-06
8.8708526e-05
2.2549373e-06
5.91053e-06
8.3909682e-05
2.278404e-06
5.6151749e-06
7.9437109e-05
2.2074821e-06
5.2497564e-06
7.5296201e-05
2.0645348e-06
4.8553893e-06
7.1474034e-05
1.8722543e-06
4.460597e-06
6.7955013e-05
1.6547667e-06
4.0771269e-06
6.4723621e-05
1.4313505e-06
3.7107669e-06
6.1764423e-05
1.2154298e-06
3.3655007e-06
5.9062056e-05
1.0158641e-06
3.0438911e-06
5.6601108e-05
8.3782743e-07
2.7471548e-06
5.4365944e-05
6.8344646e-07
2.475497e-06
5.2340648e-05
5.5258527e-07
2.2284383e-06
5.0509125e-05
4.4366549e-07
2.0050361e-06
4.8855299e-05
3.5433457e-07
1.8040352e-06
4.7363353e-05
2.819359e-07
1.6239821e-06
4.6017963e-05
2.2381345e-07
1.4633127e-06
4.4804503e-05
1.7749382e-07
1.3204181e-06
4.3709199e-05
1.4078089e-07
1.1936935e-06
4.2719248e-05
1.1179155e-07
1.081575e-06
4.1822875e-05
8.8954539e-08
9.8256583e-07
4.1009364e-05
7.0987993e-08
8.952547e-07
4.0269054e-05
5.686182e-08
8.1832382e-07
3.9593306e-05
4.5719125e-08
7.5058477e-07
3.8974405e-05
3.6977856e-08
6.9093439e-07
3.8405585e-05
3.0067356e-08
6.3838633e-07
3.7880869e-05
2.4650834e-08
5.9204243e-07
3.7395029e-05
2.0439981e-08
5.5110607e-07
3.6943514e-05
1.7190255e-08
5.1487714e-07
3.6522366e-05
1.4716712e-08
4.8273957e-07
3.6128148e-05
1.2874781e-08
4.541539e-07
3.5757883e-05
1.154993e-08
4.2864945e-07
3.5408991e-05
1.0650781e-08
4.0581707e-07
3.5079238e-05
1.0103613e-08
3.8530228e-07
3.4766689e-05
9.8482888e-09
3.6679879e-07
3.4469668e-05
9.8351505e-09
3.5004235e-07
3.4186716e-05
1.0022908e-08
3.3480549e-07
3.3916567e-05
1.037704e-08
3.2089287e-07
3.3658116e-05
1.0868051e-08
3.0813659e-07
3.3410395e-05
1.147097e-08
2.9639284e-07
3.3172556e-05
1.2164244e-08
2.8553825e-07
3.2943853e-05
1.2929275e-08
2.7546717e-07
3.2723625e-05
1.3750165e-08
2.6608893e-07
3.2511286e-05
1.4613063e-08
2.5732574e-07
3.2306316e-05
1.5506241e-08
2.4911066e-07
3.2108246e-05
1.6419602e-08
2.4138621e-07
3.1916658e-05
1.7344633e-08
2.3410271e-07
3.1731171e-05
1.827433e-08
2.2721714e-07
3.1551444e-05
1.9203184e-08
2.2069214e-07
3.1377162e-05
2.0127755e-08
2.1449507e-07
3.1208038e-05
2.1048655e-08
2.0859678e-07
3.10438e-05
2.1972766e-08
2.0297052e-07
3.0884232e-05
2.2827846e-08
1.9760738e-07
3.0729103e-05
2.3662974e-08
1.9248229e-07
3.05782e-05
2.4490008e-08
1.8757381e-07
3.0431331e-05
2.5296284e-08
1.8286761e-07
3.0288318e-05
2.6077977e-08
1.7835076e-07
3.0148994e-05
2.6834308e-08
1.7401105e-07
3.0013202e-05
2.7564696e-08
1.6983753e-07
2.9880797e-05
2.826902e-08
1.6582024e-07
2.975164e-05
2.8947472e-08
1.6195015e-07
2.9625601e-05
2.9600794e-08
1.5821898e-07
2.9502557e-05
3.0228577e-08
1.546192e-07
2.9382396e-05
3.0823582e-08
1.5114465e-07
2.9265007e-05
3.1393119e-08
1.4778875e-07
2.9150287e-05
3.1939594e-08
1.4454535e-07
2.9038137e-05
3.2461882e-08
1.4140899e-07
2.8928465e-05
3.2960069e-08
1.3837459e-07
2.8821181e-05
3.3434743e-08
1.3543748e-07
2.8716203e-05
3.3886379e-08
1.3259331e-07
2.8613449e-05
3.4315557e-08
1.2983787e-07
2.8512845e-05
3.4722911e-08
1.2716742e-07
2.8414317e-05
3.5108993e-08
1.2457816e-07
2.8317797e-05
3.5474473e-08
1.2206682e-07
2.8223219e-05
3.5819894e-08
1.1963007e-07
2.813052e-05
3.6145927e-08
1.1726493e-07
2.803964e-05
3.6453073e-08
1.1496839e-07
2.7950522e-05
3.6741884e-08
1.1273771e-07
2.7863111e-05
3.7012804e-08
1.1057027e-07
2.7777354e-05
3.7266245e-08
1.0846343e-07
2.7693204e-05
3.7502489e-08
1.0641475e-07
2.761061e-05
3.7721611e-08
1.0442177e-07
2.752953e-05
3.7923539e-08
1.0248201e-07
2.7449919e-05
3.8107981e-08
1.0059305e-07
2.7371738e-05
3.8274295e-08
9.875228e-08
2.7294949e-05
3.8421546e-08
9.6956909e-08
2.7219516e-05
3.8548729e-08
9.5203656e-08
2.714541e-05
3.8655119e-08
9.3488598e-08
2.7072603e-05
3.8741109e-08
9.1806971e-08
2.7001079e-05
3.8810245e-08
9.0152292e-08
2.6930832e-05
3.8872111e-08
8.851656e-08
2.6861876e-05
3.8947409e-08
8.6890526e-08
2.679426e-05
3.9073541e-08
8.5269157e-08
2.6728065e-05
3.9306966e-08
8.3675921e-08
2.6663337e-05
3.9708367e-08
8.227119e-08
2.659956e-05
4.0272022e-08
8.1836206e-08
2.6534295e-05
4.0698006e-08
8.4555721e-08
3.9620825e-08
1.1507129e-07
0.00010494757
5.6811082e-07
6.5033076e-06
9.8925416e-05
1.0462983e-06
6.6283516e-06
9.3480449e-05
1.3439845e-06
6.1835066e-06
8.8341777e-05
1.4751324e-06
5.9184763e-06
8.3502084e-05
1.4993911e-06
5.6187065e-06
7.9004057e-05
1.4572411e-06
5.2482679e-06
7.4853978e-05
1.3667382e-06
4.8478757e-06
7.1037378e-05
1.2423974e-06
4.4464569e-06
6.7536063e-05
1.0997693e-06
4.0563128e-06
6.4331998e-05
9.5192363e-07
3.6834909e-06
6.1407318e-05
8.0805757e-07
3.3320524e-06
5.8744339e-05
6.7422203e-07
3.0046209e-06
5.6325632e-05
5.5404399e-07
2.7024907e-06
5.4133973e-05
4.4916747e-07
2.4259383e-06
5.2152298e-05
3.5972399e-07
2.174536e-06
5.0363747e-05
2.8484511e-07
1.9473718e-06
4.875178e-05
2.2310005e-07
1.7432015e-06
4.7300339e-05
1.7281166e-07
1.5605647e-06
4.5994012e-05
1.3226575e-07
1.3978748e-06
4.4818177e-05
9.9840019e-08
1.2534891e-06
4.3759121e-05
7.4075607e-08
1.1257614e-06
4.2804123e-05
5.3707632e-08
1.0130814e-06
4.1941503e-05
3.7671229e-08
9.1390375e-07
4.1160627e-05
2.509648e-08
8.2676728e-07
4.0451891e-05
1.5294173e-08
7.5030388e-07
3.980679e-05
7.5281892e-09
6.8329178e-07
3.9217543e-05
1.6727512e-09
6.2455202e-07
3.8677513e-05
-3.0331196e-09
5.7313082e-07
3.8180739e-05
-6.6486701e-09
5.2807355e-07
3.7722004e-05
-9.3594792e-09
4.8853453e-07
3.7296777e-05
-1.1371782e-08
4.537893e-07
3.6901112e-05
-1.2818203e-08
4.2319914e-07
3.6531588e-05
-1.380527e-08
3.9620481e-07
3.6185236e-05
-1.4417463e-08
3.7231877e-07
3.5859491e-05
-1.4721861e-08
3.5111777e-07
3.5552132e-05
-1.4772608e-08
3.3223582e-07
3.5261237e-05
-1.4613895e-08
3.1535728e-07
3.4985143e-05
-1.4282142e-08
3.0021089e-07
3.472241e-05
-1.3807666e-08
2.8656375e-07
3.4471787e-05
-1.3215912e-08
2.7421626e-07
3.4232185e-05
-1.2528204e-08
2.6299771e-07
3.4002657e-05
-1.1762777e-08
2.5276175e-07
3.3782373e-05
-1.0935242e-08
2.4338334e-07
3.3570606e-05
-1.0058769e-08
2.3475555e-07
3.3366714e-05
-9.1447149e-09
2.2678671e-07
3.3170132e-05
-8.2028456e-09
2.1939831e-07
3.2980356e-05
-7.2412598e-09
2.12523e-07
3.279694e-05
-6.2668946e-09
2.061028e-07
3.2619482e-05
-5.2855243e-09
2.0008785e-07
3.2447623e-05
-4.3018172e-09
1.9443479e-07
3.228104e-05
-3.3190746e-09
1.8910585e-07
3.2119438e-05
-2.3382959e-09
1.8406733e-07
3.1962554e-05
-1.3530413e-09
1.7928647e-07
3.1810075e-05
-2.7631019e-10
1.7472764e-07
3.1661878e-05
5.8583212e-10
1.7043905e-07
3.1517732e-05
1.4356388e-09
1.6637295e-07
3.1377429e-05
2.3038455e-09
1.6248959e-07
3.1240792e-05
3.1586414e-09
1.5877486e-07
3.1107656e-05
3.9970101e-09
1.552172e-07
3.0977867e-05
4.817168e-09
1.5180544e-07
3.0851284e-05
5.617978e-09
1.4852966e-07
3.0727774e-05
6.3990494e-09
1.4538078e-07
3.0607209e-05
7.1609486e-09
1.4235054e-07
3.0489473e-05
7.9059491e-09
1.3943122e-07
3.037445e-05
8.6357679e-09
1.3661578e-07
3.0262049e-05
9.3206611e-09
1.3390396e-07
3.0152163e-05
9.9937915e-09
1.3128563e-07
3.0044697e-05
1.0650374e-08
1.2875513e-07
2.9939564e-05
1.1286751e-08
1.2630827e-07
2.983668e-05
1.1903216e-08
1.2394086e-07
2.9735965e-05
1.2500165e-08
1.2164883e-07
2.9637345e-05
1.3077912e-08
1.1942844e-07
2.9540748e-05
1.3636734e-08
1.1727619e-07
2.9446105e-05
1.4177035e-08
1.1518882e-07
2.9353352e-05
1.4699177e-08
1.1316341e-07
2.9262425e-05
1.5203564e-08
1.1119702e-07
2.9173268e-05
1.5690497e-08
1.092871e-07
2.9085822e-05
1.6160386e-08
1.0743107e-07
2.9000035e-05
1.6613591e-08
1.0562666e-07
2.8915855e-05
1.7050387e-08
1.0387152e-07
2.8833233e-05
1.7471093e-08
1.021636e-07
2.8752123e-05
1.7875956e-08
1.0050081e-07
2.8672479e-05
1.8265096e-08
9.8881104e-08
2.8594259e-05
1.8638558e-08
9.7302485e-08
2.8517424e-05
1.8996227e-08
9.5762944e-08
2.8441934e-05
1.9337829e-08
9.4260378e-08
2.8367753e-05
1.9662811e-08
9.2792347e-08
2.8294848e-05
1.9970465e-08
9.1356262e-08
2.8223187e-05
2.0259996e-08
8.9948867e-08
2.8152746e-05
2.0530712e-08
8.8565932e-08
2.8083503e-05
2.0782592e-08
8.7201805e-08
2.8015447e-05
2.1017519e-08
8.5848677e-08
2.7948582e-05
2.1240714e-08
8.4495836e-08
2.7882937e-05
2.1462716e-08
8.3129529e-08
2.7818574e-05
2.1699959e-08
8.1736522e-08
2.7755588e-05
2.1969268e-08
8.0324348e-08
2.7694014e-05
2.2266181e-08
7.9016087e-08
2.7633299e-05
2.2506316e-08
7.8480652e-08
2.7571004e-05
2.239343e-08
8.0599463e-08
2.0993076e-08
1.0779945e-07
0.00010489986
2.7443376e-07
6.5049155e-06
9.8802772e-05
5.0716633e-07
6.6362236e-06
9.329591e-05
6.5854974e-07
6.1922972e-06
8.8116302e-05
7.2902547e-07
5.9257148e-06
8.3248198e-05