/*--------------------------------*- C++ -*----------------------------------*\
  =========                 |
  \\      /  F ield         | OpenFOAM: The Open Source CFD Toolbox
   \\    /   O peration     | Website:  https://openfoam.org
    \\  /    A nd           | Version:  7
     \\/     M anipulation  |
\*---------------------------------------------------------------------------*/
FoamFile
{
    version     2.0;
    format      ascii;
    class       volScalarField;
    location    "50/water";
    object      T;
}
// * * * * * * * * * * * * * * * * * * * * * * * * * * * * * * * * * * * * * //

dimensions      [0 0 0 1 0 0 0];

internalField   nonuniform List<scalar> 
54000
(
300.00147
300.00308
300.00488
300.00689
300.00914
300.01166
300.01447
300.01758
300.02095
300.02455
300.0283
300.03213
300.03597
300.03973
300.04336
300.0468
300.04998
300.05286
300.05536
300.05744
300.05908
300.06027
300.06106
300.06151
300.0617
300.0617
300.06156
300.06132
300.06101
300.06067
300.06029
300.05991
300.05952
300.05915
300.05879
300.05846
300.05816
300.05789
300.05764
300.05742
300.05722
300.05705
300.05689
300.05675
300.05662
300.0565
300.05639
300.05629
300.0562
300.05612
300.05604
300.05597
300.0559
300.05584
300.05578
300.05573
300.05568
300.05564
300.0556
300.05556
300.05552
300.05549
300.05547
300.05544
300.05542
300.0554
300.05538
300.05537
300.05535
300.05534
300.05533
300.05532
300.05531
300.05531
300.0553
300.0553
300.05529
300.05529
300.05529
300.05528
300.05528
300.05528
300.05528
300.05528
300.05528
300.05528
300.05528
300.05528
300.05528
300.05529
300.05529
300.05529
300.05529
300.05529
300.05529
300.05529
300.05529
300.05529
300.0553
300.0553
300.00008
300.00026
300.00053
300.00089
300.00135
300.00189
300.00251
300.00319
300.00392
300.00469
300.0055
300.00634
300.00722
300.00814
300.0091
300.0101
300.01114
300.01219
300.01324
300.01427
300.01524
300.01613
300.01691
300.01754
300.01801
300.01829
300.01836
300.01822
300.01785
300.01726
300.01648
300.01552
300.01442
300.01324
300.01201
300.01078
300.00959
300.00846
300.00741
300.00644
300.00557
300.00478
300.00408
300.00344
300.00287
300.00235
300.00187
300.00144
300.00103
300.00066
300.00031
299.99998
299.99967
299.99938
299.9991
299.99884
299.9986
299.99837
299.99815
299.99794
299.99775
299.99757
299.99739
299.99723
299.99708
299.99695
299.99682
299.9967
299.99658
299.99648
299.99639
299.9963
299.99622
299.99615
299.99609
299.99604
299.99599
299.99595
299.99591
299.99588
299.99585
299.99583
299.99582
299.9958
299.99579
299.99578
299.99577
299.99577
299.99576
299.99576
299.99575
299.99575
299.99575
299.99575
299.99574
299.99574
299.99574
299.99574
299.99574
299.99574
300
300.00002
300.00005
300.0001
300.00018
300.00028
300.00041
300.00056
300.00073
300.0009
300.00109
300.00129
300.00149
300.00169
300.00191
300.00214
300.00238
300.00263
300.0029
300.00317
300.00346
300.00374
300.00402
300.00428
300.00451
300.0047
300.00483
300.00489
300.00484
300.00467
300.00436
300.00389
300.00326
300.00245
300.00149
300.00039
299.99919
299.99791
299.9966
299.99531
299.99405
299.99287
299.99178
299.99078
299.98989
299.9891
299.98839
299.98777
299.98721
299.98672
299.98627
299.98586
299.98548
299.98513
299.9848
299.98449
299.98419
299.98391
299.98365
299.98339
299.98315
299.98291
299.98269
299.98248
299.98227
299.98208
299.98189
299.98172
299.98155
299.98139
299.98124
299.9811
299.98097
299.98084
299.98073
299.98062
299.98052
299.98043
299.98035
299.98027
299.9802
299.98014
299.98008
299.98003
299.97999
299.97994
299.97991
299.97987
299.97984
299.97981
299.97979
299.97977
299.97975
299.97973
299.97972
299.9797
299.97969
299.97968
299.97967
299.97966
300
300
300
300.00001
300.00002
300.00003
300.00006
300.00008
300.00011
300.00015
300.00019
300.00023
300.00027
300.00032
300.00037
300.00042
300.00047
300.00052
300.00058
300.00064
300.0007
300.00077
300.00084
300.00091
300.00097
300.00103
300.00108
300.00111
300.00111
300.00107
300.00096
300.00077
300.00048
300.00006
299.9995
299.99878
299.99792
299.99692
299.99581
299.99461
299.99337
299.99212
299.99089
299.98973
299.98865
299.98766
299.98678
299.98599
299.9853
299.9847
299.98417
299.9837
299.98328
299.98291
299.98257
299.98225
299.98195
299.98167
299.98141
299.98116
299.98092
299.98069
299.98046
299.98025
299.98004
299.97984
299.97965
299.97946
299.97928
299.97911
299.97895
299.97879
299.97864
299.97849
299.97835
299.97822
299.97809
299.97797
299.97786
299.97775
299.97765
299.97755
299.97747
299.97738
299.97731
299.97723
299.97717
299.97711
299.97705
299.977
299.97695
299.97691
299.97687
299.97683
299.9768
299.97677
299.97675
299.97672
299.9767
299.97668
300
300
300
300
300
300
300.00001
300.00001
300.00001
300.00002
300.00003
300.00003
300.00004
300.00005
300.00006
300.00007
300.00008
300.00009
300.0001
300.00011
300.00012
300.00013
300.00015
300.00016
300.00018
300.00019
300.0002
300.0002
300.00019
300.00016
300.0001
299.99999
299.99981
299.99955
299.99917
299.99867
299.99802
299.99723
299.99631
299.99526
299.99413
299.99294
299.99174
299.99055
299.98941
299.98834
299.98736
299.98648
299.9857
299.98501
299.98441
299.98388
299.98342
299.98301
299.98264
299.98231
299.98201
299.98172
299.98145
299.9812
299.98096
299.98073
299.9805
299.98029
299.98008
299.97988
299.97968
299.97949
299.9793
299.97912
299.97895
299.97878
299.97862
299.97846
299.97831
299.97816
299.97802
299.97789
299.97776
299.97763
299.97752
299.97741
299.9773
299.9772
299.97711
299.97702
299.97694
299.97686
299.97679
299.97673
299.97667
299.97661
299.97656
299.97651
299.97647
299.97643
299.97639
299.97636
299.97633
299.97631
300
300
300
300
300
300
300
300
300
300
300
300
300.00001
300.00001
300.00001
300.00001
300.00001
300.00001
300.00001
300.00002
300.00002
300.00002
300.00002
300.00002
300.00003
300.00003
300.00003
300.00002
300.00001
299.99998
299.99992
299.99983
299.99969
299.99946
299.99915
299.99871
299.99815
299.99745
299.99662
299.99566
299.9946
299.99347
299.9923
299.99113
299.98999
299.98891
299.9879
299.98698
299.98616
299.98543
299.9848
299.98424
299.98375
299.98331
299.98293
299.98258
299.98227
299.98197
299.9817
299.98144
299.98119
299.98096
299.98073
299.98051
299.98029
299.98009
299.97989
299.97969
299.9795
299.97931
299.97913
299.97896
299.97878
299.97862
299.97846
299.97831
299.97816
299.97801
299.97788
299.97774
299.97762
299.9775
299.97739
299.97728
299.97718
299.97708
299.97699
299.97691
299.97683
299.97676
299.9767
299.97663
299.97658
299.97653
299.97648
299.97643
299.97639
299.97636
299.97632
299.97629
300
300
300
300
300
300
300
300
300
300
300
300
300
300
300
300
300
300
300
300
300
300
300
300
300
300
300
299.99999
299.99998
299.99995
299.99989
299.9998
299.99966
299.99945
299.99915
299.99874
299.9982
299.99753
299.99673
299.99581
299.99478
299.99368
299.99254
299.99139
299.99026
299.98918
299.98817
299.98725
299.98642
299.98568
299.98503
299.98446
299.98396
299.98352
299.98313
299.98278
299.98245
299.98216
299.98188
299.98162
299.98136
299.98112
299.98089
299.98067
299.98045
299.98024
299.98003
299.97983
299.97963
299.97944
299.97926
299.97907
299.9789
299.97873
299.97856
299.9784
299.97825
299.9781
299.97796
299.97782
299.97769
299.97756
299.97745
299.97734
299.97723
299.97713
299.97704
299.97695
299.97687
299.9768
299.97673
299.97666
299.9766
299.97655
299.9765
299.97645
299.97641
299.97637
299.97634
299.97631
300
300
300
300
300
300
300
300
300
300
300
300
300
300
300
300
300
300
300
300
300
300
300
300
300
300
299.99999
299.99999
299.99997
299.99994
299.99989
299.9998
299.99966
299.99945
299.99915
299.99874
299.99821
299.99755
299.99676
299.99585
299.99484
299.99375
299.99262
299.99148
299.99036
299.98929
299.98829
299.98737
299.98654
299.98581
299.98516
299.98459
299.98409
299.98364
299.98325
299.98289
299.98257
299.98227
299.98199
299.98173
299.98147
299.98123
299.981
299.98077
299.98055
299.98033
299.98012
299.97992
299.97972
299.97953
299.97934
299.97915
299.97897
299.9788
299.97863
299.97846
299.9783
299.97815
299.978
299.97786
299.97773
299.9776
299.97748
299.97737
299.97726
299.97716
299.97706
299.97697
299.97689
299.97681
299.97674
299.97668
299.97662
299.97656
299.97651
299.97646
299.97642
299.97638
299.97635
299.97631
300
300
300
300
300
300
300
300
300
300
300
300
300
300
300
300
300
300
300
300
300
300
300
300
300
300
299.99999
299.99999
299.99997
299.99994
299.99989
299.9998
299.99966
299.99945
299.99915
299.99874
299.99821
299.99755
299.99676
299.99586
299.99485
299.99377
299.99264
299.99151
299.99039
299.98933
299.98833
299.98742
299.98659
299.98586
299.98521
299.98464
299.98414
299.9837
299.98331
299.98295
299.98263
299.98233
299.98205
299.98178
299.98153
299.98129
299.98105
299.98082
299.9806
299.98039
299.98017
299.97997
299.97977
299.97957
299.97938
299.97919
299.97901
299.97883
299.97866
299.97849
299.97833
299.97818
299.97803
299.97789
299.97775
299.97762
299.9775
299.97738
299.97727
299.97717
299.97707
299.97698
299.9769
299.97682
299.97675
299.97668
299.97662
299.97656
299.97651
299.97647
299.97642
299.97638
299.97635
299.97632
300
300
300
300
300
300
300
300
300
300
300
300
300
300
300
300
300
300
300
300
300
300
300
300
300
300
299.99999
299.99999
299.99997
299.99994
299.99989
299.9998
299.99966
299.99945
299.99915
299.99874
299.99821
299.99755
299.99676
299.99586
299.99485
299.99377
299.99264
299.99151
299.99039
299.98933
299.98833
299.98742
299.98659
299.98586
299.98521
299.98464
299.98414
299.9837
299.98331
299.98295
299.98263
299.98233
299.98205
299.98179
299.98153
299.98129
299.98105
299.98082
299.9806
299.98039
299.98018
299.97997
299.97977
299.97957
299.97938
299.97919
299.97901
299.97883
299.97866
299.9785
299.97834
299.97818
299.97803
299.97789
299.97775
299.97762
299.9775
299.97738
299.97727
299.97717
299.97707
299.97698
299.9769
299.97682
299.97675
299.97668
299.97662
299.97657
299.97651
299.97647
299.97642
299.97639
299.97635
299.97632
300
300
300
300
300
300
300
300
300
300
300
300
300
300
300
300
300
300
300
300
300
300
300
300
300
300
299.99999
299.99999
299.99997
299.99994
299.99989
299.9998
299.99966
299.99945
299.99915
299.99874
299.99821
299.99755
299.99676
299.99585
299.99484
299.99375
299.99262
299.99148
299.99036
299.98929
299.98829
299.98737
299.98655
299.98581
299.98516
299.98459
299.98409
299.98365
299.98325
299.9829
299.98257
299.98227
299.98199
299.98173
299.98148
299.98123
299.981
299.98077
299.98055
299.98034
299.98013
299.97992
299.97972
299.97953
299.97934
299.97915
299.97897
299.9788
299.97863
299.97847
299.97831
299.97815
299.97801
299.97787
299.97773
299.97761
299.97749
299.97737
299.97726
299.97716
299.97707
299.97698
299.97689
299.97682
299.97675
299.97668
299.97662
299.97656
299.97651
299.97647
299.97642
299.97639
299.97635
299.97632
300
300
300
300
300
300
300
300
300
300
300
300
300
300
300
300
300
300
300
300
300
300
300
300
300
300
300
299.99999
299.99997
299.99995
299.99989
299.9998
299.99966
299.99945
299.99915
299.99874
299.9982
299.99753
299.99673
299.99581
299.99478
299.99368
299.99254
299.99139
299.99026
299.98918
299.98817
299.98725
299.98642
299.98569
299.98504
299.98447
299.98397
299.98353
299.98313
299.98278
299.98246
299.98216
299.98188
299.98162
299.98137
299.98113
299.9809
299.98067
299.98045
299.98024
299.98004
299.97984
299.97964
299.97945
299.97926
299.97908
299.9789
299.97873
299.97857
299.97841
299.97825
299.97811
299.97796
299.97783
299.9777
299.97757
299.97745
299.97734
299.97724
299.97714
299.97705
299.97696
299.97688
299.9768
299.97673
299.97667
299.97661
299.97656
299.97651
299.97646
299.97642
299.97638
299.97635
299.97631
300
300
300
300
300
300
300
300
300
300
300
300
300
300.00001
300.00001
300.00001
300.00001
300.00001
300.00001
300.00001
300.00002
300.00002
300.00002
300.00002
300.00003
300.00003
300.00003
300.00002
300.00001
299.99998
299.99992
299.99983
299.99968
299.99946
299.99914
299.99871
299.99815
299.99745
299.99662
299.99566
299.9946
299.99347
299.9923
299.99113
299.98999
299.98891
299.9879
299.98699
299.98617
299.98544
299.9848
299.98424
299.98375
299.98332
299.98294
299.98259
299.98227
299.98198
299.98171
299.98145
299.9812
299.98096
299.98074
299.98052
299.9803
299.9801
299.97989
299.9797
299.97951
299.97932
299.97914
299.97896
299.97879
299.97863
299.97847
299.97831
299.97817
299.97802
299.97789
299.97775
299.97763
299.97751
299.9774
299.97729
299.97719
299.97709
299.97701
299.97692
299.97685
299.97677
299.97671
299.97665
299.97659
299.97654
299.97649
299.97644
299.9764
299.97637
299.97634
299.97631
300
300
300
300
300
300
300.00001
300.00001
300.00001
300.00002
300.00003
300.00003
300.00004
300.00005
300.00006
300.00007
300.00008
300.00009
300.0001
300.00011
300.00012
300.00013
300.00015
300.00016
300.00018
300.00019
300.0002
300.0002
300.00019
300.00016
300.0001
299.99999
299.99981
299.99955
299.99917
299.99867
299.99802
299.99723
299.99631
299.99527
299.99413
299.99295
299.99174
299.99055
299.98941
299.98835
299.98737
299.98649
299.98571
299.98502
299.98442
299.98389
299.98343
299.98302
299.98265
299.98232
299.98202
299.98173
299.98147
299.98121
299.98097
299.98074
299.98051
299.9803
299.98009
299.97989
299.97969
299.9795
299.97932
299.97914
299.97896
299.97879
299.97863
299.97847
299.97832
299.97818
299.97804
299.9779
299.97777
299.97765
299.97753
299.97742
299.97731
299.97722
299.97712
299.97704
299.97695
299.97688
299.97681
299.97674
299.97668
299.97663
299.97657
299.97653
299.97648
299.97645
299.97641
299.97638
299.97635
299.97632
300
300
300
300.00001
300.00002
300.00003
300.00005
300.00008
300.00011
300.00015
300.00019
300.00023
300.00027
300.00032
300.00037
300.00042
300.00047
300.00052
300.00058
300.00064
300.0007
300.00077
300.00084
300.00091
300.00097
300.00103
300.00108
300.00111
300.00111
300.00107
300.00096
300.00077
300.00048
300.00006
299.9995
299.99879
299.99793
299.99693
299.99581
299.99462
299.99337
299.99212
299.9909
299.98974
299.98866
299.98767
299.98679
299.986
299.98532
299.98471
299.98418
299.98372
299.9833
299.98292
299.98258
299.98226
299.98197
299.98169
299.98143
299.98117
299.98093
299.9807
299.98048
299.98026
299.98006
299.97986
299.97967
299.97948
299.9793
299.97913
299.97896
299.97881
299.97865
299.97851
299.97837
299.97824
299.97811
299.97799
299.97788
299.97777
299.97767
299.97757
299.97748
299.9774
299.97733
299.97725
299.97719
299.97713
299.97707
299.97702
299.97697
299.97693
299.97689
299.97685
299.97682
299.97679
299.97677
299.97674
299.97672
299.9767
300
300.00002
300.00005
300.0001
300.00018
300.00028
300.00041
300.00056
300.00073
300.00091
300.00109
300.00129
300.00149
300.0017
300.00191
300.00214
300.00238
300.00263
300.0029
300.00318
300.00346
300.00374
300.00402
300.00428
300.00452
300.00471
300.00484
300.00489
300.00484
300.00467
300.00436
300.0039
300.00326
300.00246
300.0015
300.0004
299.9992
299.99792
299.99662
299.99532
299.99407
299.99288
299.99179
299.9908
299.98991
299.98911
299.98841
299.98779
299.98723
299.98674
299.98629
299.98588
299.9855
299.98515
299.98482
299.98451
299.98422
299.98393
299.98367
299.98341
299.98317
299.98293
299.98271
299.9825
299.98229
299.9821
299.98192
299.98174
299.98157
299.98141
299.98126
299.98112
299.98099
299.98087
299.98075
299.98064
299.98054
299.98045
299.98037
299.98029
299.98023
299.98016
299.98011
299.98006
299.98001
299.97997
299.97993
299.9799
299.97987
299.97984
299.97981
299.97979
299.97977
299.97976
299.97974
299.97973
299.97972
299.9797
299.9797
299.97969
300.00008
300.00026
300.00053
300.00089
300.00135
300.00189
300.00251
300.00319
300.00392
300.00469
300.0055
300.00634
300.00722
300.00814
300.0091
300.01011
300.01114
300.01219
300.01324
300.01427
300.01525
300.01614
300.01691
300.01755
300.01801
300.01829
300.01837
300.01822
300.01786
300.01727
300.01649
300.01553
300.01444
300.01325
300.01203
300.0108
300.00961
300.00848
300.00743
300.00646
300.00559
300.0048
300.0041
300.00346
300.00289
300.00237
300.0019
300.00146
300.00106
300.00068
300.00033
300
299.99969
299.9994
299.99913
299.99887
299.99862
299.99839
299.99817
299.99797
299.99777
299.99759
299.99742
299.99726
299.99711
299.99697
299.99684
299.99672
299.99661
299.99651
299.99641
299.99633
299.99625
299.99618
299.99612
299.99606
299.99601
299.99597
299.99594
299.99591
299.99588
299.99586
299.99584
299.99583
299.99582
299.99581
299.9958
299.99579
299.99579
299.99579
299.99578
299.99578
299.99578
299.99577
299.99577
299.99577
299.99577
299.99577
299.99577
299.99577
300.00147
300.00308
300.00488
300.00689
300.00914
300.01166
300.01448
300.01758
300.02096
300.02455
300.02831
300.03214
300.03597
300.03974
300.04337
300.0468
300.04999
300.05286
300.05536
300.05744
300.05908
300.06027
300.06106
300.06152
300.06171
300.06171
300.06156
300.06133
300.06102
300.06068
300.0603
300.05992
300.05953
300.05916
300.0588
300.05847
300.05817
300.0579
300.05765
300.05744
300.05724
300.05706
300.05691
300.05676
300.05663
300.05652
300.05641
300.05631
300.05622
300.05613
300.05606
300.05598
300.05592
300.05585
300.0558
300.05574
300.0557
300.05565
300.05561
300.05557
300.05554
300.05551
300.05548
300.05546
300.05544
300.05542
300.0554
300.05538
300.05537
300.05536
300.05535
300.05534
300.05533
300.05532
300.05532
300.05531
300.05531
300.05531
300.0553
300.0553
300.0553
300.0553
300.0553
300.0553
300.0553
300.0553
300.0553
300.0553
300.0553
300.0553
300.0553
300.05531
300.05531
300.05531
300.05531
300.05531
300.05531
300.05531
300.05531
300.05531
300.00146
300.00298
300.00456
300.00624
300.00804
300.00996
300.01202
300.01423
300.01657
300.01904
300.02163
300.02431
300.02707
300.02988
300.03272
300.03556
300.03837
300.04113
300.04381
300.04638
300.0488
300.05107
300.05314
300.05501
300.05666
300.0581
300.05931
300.0603
300.06107
300.06164
300.06203
300.06224
300.06232
300.06227
300.06214
300.06193
300.06169
300.06141
300.06112
300.06083
300.06055
300.06027
300.06
300.05974
300.05949
300.05925
300.05902
300.05879
300.05858
300.05837
300.05817
300.05797
300.05779
300.05761
300.05744
300.05727
300.05711
300.05696
300.05682
300.05669
300.05656
300.05644
300.05633
300.05622
300.05612
300.05603
300.05595
300.05587
300.0558
300.05574
300.05568
300.05563
300.05558
300.05554
300.05551
300.05547
300.05544
300.05542
300.0554
300.05538
300.05536
300.05535
300.05533
300.05532
300.05532
300.05531
300.05531
300.0553
300.0553
300.0553
300.0553
300.0553
300.0553
300.0553
300.0553
300.0553
300.0553
300.0553
300.0553
300.0553
300.00009
300.00026
300.0005
300.00081
300.00119
300.00164
300.00214
300.00269
300.00329
300.00392
300.00459
300.00529
300.00601
300.00677
300.00754
300.00833
300.00914
300.00996
300.01078
300.01162
300.01244
300.01326
300.01406
300.01484
300.01558
300.01628
300.01693
300.01753
300.01806
300.01851
300.01888
300.01917
300.01937
300.01948
300.01951
300.01944
300.0193
300.01908
300.01879
300.01844
300.01803
300.01758
300.01707
300.01653
300.01596
300.01536
300.01474
300.01409
300.01344
300.01277
300.01209
300.01142
300.01073
300.01005
300.00938
300.0087
300.00803
300.00737
300.00672
300.00607
300.00544
300.00482
300.00421
300.00361
300.00303
300.00247
300.00193
300.00141
300.00092
300.00045
300
299.99958
299.99919
299.99882
299.99848
299.99818
299.9979
299.99764
299.99742
299.99722
299.99704
299.99689
299.99675
299.99663
299.99652
299.99643
299.99635
299.99628
299.99621
299.99616
299.9961
299.99606
299.99602
299.99598
299.99595
299.99593
299.9959
299.99588
299.99586
299.99584
300
300.00002
300.00005
300.00009
300.00016
300.00025
300.00035
300.00048
300.00062
300.00078
300.00096
300.00114
300.00134
300.00154
300.00176
300.00198
300.0022
300.00244
300.00267
300.00292
300.00316
300.00341
300.00367
300.00392
300.00417
300.00441
300.00465
300.00488
300.00509
300.00529
300.00547
300.00561
300.00573
300.00581
300.00585
300.00584
300.0058
300.0057
300.00555
300.00536
300.00513
300.00485
300.00454
300.00419
300.00381
300.00339
300.00295
300.00249
300.00201
300.0015
300.00098
300.00044
299.99989
299.99933
299.99876
299.99817
299.99758
299.99698
299.99638
299.99578
299.99518
299.99458
299.99398
299.99339
299.99281
299.99223
299.99165
299.99109
299.99054
299.98999
299.98945
299.98893
299.98841
299.98791
299.98742
299.98694
299.98647
299.98602
299.98558
299.98516
299.98476
299.98437
299.984
299.98366
299.98333
299.98301
299.98272
299.98244
299.98218
299.98194
299.98172
299.98151
299.98132
299.98115
299.98099
299.98084
299.98071
299.98059
299.98048
299.98038
300
300
300
300.00001
300.00002
300.00003
300.00005
300.00007
300.0001
300.00013
300.00017
300.00021
300.00025
300.0003
300.00036
300.00041
300.00047
300.00053
300.00059
300.00065
300.00072
300.00079
300.00086
300.00093
300.001
300.00107
300.00114
300.00121
300.00128
300.00134
300.0014
300.00145
300.00149
300.00152
300.00153
300.00152
300.00149
300.00143
300.00134
300.00122
300.00107
300.00088
300.00067
300.00043
300.00016
299.99987
299.99956
299.99924
299.99889
299.99853
299.99816
299.99777
299.99738
299.99697
299.99656
299.99614
299.99571
299.99527
299.99483
299.99438
299.99393
299.99348
299.99303
299.99258
299.99214
299.99169
299.99125
299.99081
299.99037
299.98994
299.9895
299.98907
299.98863
299.9882
299.98775
299.98731
299.98686
299.98641
299.98596
299.9855
299.98505
299.9846
299.98414
299.9837
299.98326
299.98283
299.98242
299.98201
299.98162
299.98125
299.98089
299.98055
299.98023
299.97992
299.97964
299.97937
299.97912
299.97889
299.97867
299.97847
300
300
300
300
300
300
300
300.00001
300.00001
300.00002
300.00002
300.00003
300.00004
300.00005
300.00006
300.00007
300.00008
300.00009
300.00011
300.00012
300.00014
300.00015
300.00017
300.00018
300.0002
300.00022
300.00023
300.00025
300.00027
300.00028
300.0003
300.00031
300.00032
300.00032
300.00031
300.00029
300.00025
300.0002
300.00013
300.00003
299.99991
299.99977
299.9996
299.99941
299.9992
299.99896
299.99871
299.99844
299.99816
299.99786
299.99756
299.99724
299.99692
299.99659
299.99626
299.99592
299.99557
299.99522
299.99487
299.99451
299.99415
299.99379
299.99343
299.99307
299.9927
299.99234
299.99198
299.99162
299.99126
299.99089
299.99052
299.99015
299.98978
299.98939
299.98899
299.98859
299.98817
299.98774
299.9873
299.98685
299.9864
299.98593
299.98546
299.985
299.98453
299.98406
299.9836
299.98315
299.98271
299.98228
299.98187
299.98147
299.98109
299.98072
299.98037
299.98004
299.97973
299.97943
299.97916
299.9789
300
300
300
300
300
300
300
300
300
300
300
300
300
300.00001
300.00001
300.00001
300.00001
300.00001
300.00002
300.00002
300.00002
300.00002
300.00003
300.00003
300.00003
300.00004
300.00004
300.00004
300.00004
300.00005
300.00005
300.00005
300.00004
300.00003
300.00002
299.99999
299.99996
299.99991
299.99984
299.99976
299.99966
299.99953
299.99938
299.99922
299.99903
299.99882
299.9986
299.99836
299.99811
299.99785
299.99757
299.99729
299.99701
299.99671
299.99641
299.99611
299.99581
299.9955
299.99518
299.99487
299.99455
299.99423
299.99391
299.99359
299.99327
299.99294
299.99262
299.99229
299.99196
299.99163
299.99129
299.99094
299.99058
299.99021
299.98983
299.98943
299.98902
299.9886
299.98816
299.9877
299.98724
299.98676
299.98628
299.9858
299.98531
299.98483
299.98435
299.98387
299.9834
299.98295
299.98251
299.98208
299.98167
299.98128
299.9809
299.98055
299.98021
299.97988
299.97958
299.9793
300
300
300
300
300
300
300
300
300
300
300
300
300
300
300
300
300
300
300
300
300
300
300
300
300
300
300.00001
300.00001
300.00001
300
300
300
299.99999
299.99998
299.99997
299.99994
299.99991
299.99986
299.9998
299.99972
299.99963
299.99951
299.99938
299.99922
299.99905
299.99886
299.99865
299.99843
299.9982
299.99796
299.9977
299.99744
299.99717
299.9969
299.99662
299.99634
299.99606
299.99577
299.99548
299.99518
299.99489
299.99459
299.99429
299.99399
299.99369
299.99339
299.99309
299.99278
299.99246
299.99214
299.99181
299.99147
299.99112
299.99075
299.99037
299.98997
299.98955
299.98912
299.98867
299.9882
299.98773
299.98724
299.98674
299.98624
299.98573
299.98523
299.98473
299.98424
299.98375
299.98328
299.98282
299.98238
299.98195
299.98154
299.98115
299.98078
299.98043
299.98009
299.97978
299.97948
300
300
300
300
300
300
300
300
300
300
300
300
300
300
300
300
300
300
300
300
300
300
300
300
300
300
300
300
300
300
300
299.99999
299.99999
299.99998
299.99996
299.99994
299.9999
299.99986
299.9998
299.99972
299.99963
299.99952
299.9994
299.99925
299.99909
299.9989
299.99871
299.9985
299.99828
299.99804
299.9978
299.99755
299.9973
299.99704
299.99677
299.9965
299.99623
299.99595
299.99568
299.9954
299.99511
299.99483
299.99455
299.99426
299.99397
299.99368
299.99339
299.99309
299.99278
299.99247
299.99214
299.99181
299.99146
299.99109
299.9907
299.9903
299.98988
299.98944
299.98898
299.9885
299.98801
299.98751
299.987
299.98648
299.98596
299.98545
299.98493
299.98442
299.98392
299.98343
299.98296
299.98251
299.98207
299.98165
299.98125
299.98087
299.98051
299.98017
299.97985
299.97955
300
300
300
300
300
300
300
300
300
300
300
300
300
300
300
300
300
300
300
300
300
300
300
300
300
300
300
300
300
300
300
299.99999
299.99998
299.99997
299.99996
299.99994
299.9999
299.99986
299.9998
299.99973
299.99964
299.99953
299.99941
299.99927
299.99911
299.99893
299.99874
299.99853
299.99832
299.99809
299.99785
299.99761
299.99736
299.99711
299.99685
299.99658
299.99632
299.99605
299.99578
299.9955
299.99523
299.99495
299.99467
299.99439
299.99411
299.99383
299.99354
299.99324
299.99294
299.99263
299.99231
299.99197
299.99162
299.99126
299.99087
299.99046
299.99004
299.98959
299.98913
299.98865
299.98815
299.98764
299.98712
299.9866
299.98607
299.98554
299.98502
299.9845
299.98399
299.9835
299.98302
299.98256
299.98211
299.98169
299.98129
299.9809
299.98054
299.9802
299.97988
299.97957
300
300
300
300
300
300
300
300
300
300
300
300
300
300
300
300
300
300
300
300
300
300
300
300
300
300
300
300
300
300
299.99999
299.99999
299.99998
299.99997
299.99996
299.99993
299.9999
299.99986
299.9998
299.99973
299.99964
299.99953
299.99941
299.99927
299.99911
299.99893
299.99874
299.99853
299.99832
299.99809
299.99785
299.99761
299.99736
299.99711
299.99685
299.99658
299.99632
299.99605
299.99578
299.9955
299.99523
299.99495
299.99467
299.99439
299.99411
299.99383
299.99354
299.99324
299.99294
299.99263
299.99231
299.99197
299.99162
299.99126
299.99087
299.99046
299.99004
299.98959
299.98913
299.98865
299.98815
299.98764
299.98712
299.9866
299.98607
299.98554
299.98502
299.9845
299.98399
299.9835
299.98302
299.98256
299.98212
299.98169
299.98129
299.98091
299.98054
299.9802
299.97988
299.97957
300
300
300
300
300
300
300
300
300
300
300
300
300
300
300
300
300
300
300
300
300
300
300
300
300
300
300
300
300
300
300
299.99999
299.99998
299.99997
299.99996
299.99993
299.9999
299.99986
299.9998
299.99972
299.99963
299.99952
299.9994
299.99925
299.99908
299.9989
299.99871
299.9985
299.99828
299.99804
299.9978
299.99755
299.9973
299.99704
299.99677
299.9965
299.99623
299.99595
299.99568
299.9954
299.99511
299.99483
299.99455
299.99426
299.99397
299.99368
299.99339
299.99309
299.99278
299.99247
299.99214
299.99181
299.99146
299.99109
299.9907
299.9903
299.98988
299.98944
299.98898
299.9885
299.98801
299.98751
299.987
299.98649
299.98597
299.98545
299.98493
299.98442
299.98392
299.98344
299.98297
299.98251
299.98207
299.98165
299.98125
299.98088
299.98052
299.98018
299.97986
299.97955
300
300
300
300
300
300
300
300
300
300
300
300
300
300
300
300
300
300
300
300
300
300
300
300
300
300
300
300
300
300
300
300
299.99999
299.99998
299.99996
299.99994
299.99991
299.99986
299.9998
299.99972
299.99962
299.99951
299.99938
299.99922
299.99905
299.99886
299.99865
299.99843
299.9982
299.99795
299.9977
299.99744
299.99717
299.9969
299.99662
299.99634
299.99606
299.99577
299.99548
299.99518
299.99489
299.99459
299.99429
299.99399
299.99369
299.99339
299.99309
299.99278
299.99246
299.99214
299.99181
299.99147
299.99112
299.99075
299.99037
299.98997
299.98955
299.98912
299.98867
299.98821
299.98773
299.98724
299.98674
299.98624
299.98574
299.98523
299.98473
299.98424
299.98376
299.98328
299.98283
299.98238
299.98195
299.98155
299.98116
299.98078
299.98043
299.9801
299.97978
299.97949
300
300
300
300
300
300
300
300
300
300
300
300
300
300.00001
300.00001
300.00001
300.00001
300.00001
300.00001
300.00002
300.00002
300.00002
300.00002
300.00003
300.00003
300.00003
300.00004
300.00004
300.00004
300.00005
300.00005
300.00005
300.00004
300.00003
300.00002
299.99999
299.99996
299.99991
299.99984
299.99976
299.99965
299.99953
299.99938
299.99922
299.99903
299.99882
299.9986
299.99836
299.99811
299.99785
299.99757
299.99729
299.99701
299.99671
299.99642
299.99611
299.99581
299.9955
299.99518
299.99487
299.99455
299.99423
299.99391
299.99359
299.99327
299.99295
299.99262
299.9923
299.99197
299.99163
299.99129
299.99094
299.99059
299.99022
299.98983
299.98944
299.98902
299.9886
299.98816
299.98771
299.98724
299.98677
299.98629
299.9858
299.98532
299.98483
299.98435
299.98388
299.98341
299.98296
299.98252
299.98209
299.98168
299.98129
299.98091
299.98055
299.98021
299.97989
299.97959
299.97931
300
300
300
300
300
300
300
300.00001
300.00001
300.00002
300.00002
300.00003
300.00004
300.00005
300.00006
300.00007
300.00008
300.00009
300.00011
300.00012
300.00013
300.00015
300.00017
300.00018
300.0002
300.00022
300.00023
300.00025
300.00027
300.00028
300.0003
300.00031
300.00031
300.00031
300.00031
300.00029
300.00025
300.0002
300.00013
300.00003
299.99991
299.99977
299.9996
299.99941
299.9992
299.99896
299.99871
299.99844
299.99816
299.99786
299.99756
299.99725
299.99692
299.9966
299.99626
299.99592
299.99558
299.99523
299.99487
299.99452
299.99416
299.99379
299.99343
299.99307
299.99271
299.99235
299.99198
299.99162
299.99126
299.9909
299.99053
299.99016
299.98978
299.98939
299.989
299.98859
299.98818
299.98775
299.98731
299.98686
299.9864
299.98594
299.98547
299.985
299.98453
299.98407
299.98361
299.98316
299.98272
299.98229
299.98188
299.98148
299.9811
299.98073
299.98038
299.98005
299.97974
299.97945
299.97917
299.97891
300
300
300
300.00001
300.00002
300.00003
300.00005
300.00007
300.0001
300.00013
300.00017
300.00021
300.00025
300.0003
300.00036
300.00041
300.00047
300.00053
300.00059
300.00065
300.00072
300.00079