/*--------------------------------*- C++ -*----------------------------------*\
  =========                 |
  \\      /  F ield         | OpenFOAM: The Open Source CFD Toolbox
   \\    /   O peration     | Website:  https://openfoam.org
    \\  /    A nd           | Version:  7
     \\/     M anipulation  |
\*---------------------------------------------------------------------------*/
FoamFile
{
    version     2.0;
    format      ascii;
    class       volVectorField;
    location    "50/water";
    object      U;
}
// * * * * * * * * * * * * * * * * * * * * * * * * * * * * * * * * * * * * * //

dimensions      [0 1 -1 0 0 0 0];

internalField   nonuniform List<vector> 
54000
(
(0.0090019518 0.00020291445 0.00020429581)
(0.008318368 0.0002361209 0.00023893853)
(0.0073693189 0.0002135798 0.00021757739)
(0.0063564503 0.00018484088 0.00018961977)
(0.0054484943 0.00015527856 0.00016045741)
(0.0046739651 0.00012527561 0.00013050634)
(0.0040191015 9.7031729e-05 0.00010201019)
(0.0034738134 7.2559978e-05 7.7055177e-05)
(0.0030300746 5.2859289e-05 5.6722364e-05)
(0.002675588 3.8053953e-05 4.1203088e-05)
(0.0023946079 2.7626e-05 3.0026061e-05)
(0.0021712951 2.0679213e-05 2.2327139e-05)
(0.0019918929 1.6227565e-05 1.7144381e-05)
(0.0018454386 1.3408418e-05 1.3635455e-05)
(0.00172368 1.1575248e-05 1.1171811e-05)
(0.0016206479 1.0298195e-05 9.33864e-06)
(0.0015321207 9.3196889e-06 7.8891818e-06)
(0.0014551212 8.4998587e-06 6.6892293e-06)
(0.0013875175 7.7699154e-06 5.670452e-06)
(0.0013277379 7.0994616e-06 4.7983485e-06)
(0.0012745829 6.476645e-06 4.05345e-06)
(0.0012271058 5.8975021e-06 3.4218252e-06)
(0.0011845369 5.3608366e-06 2.8910366e-06)
(0.001146237 4.8660714e-06 2.4487993e-06)
(0.0011116663 4.4123861e-06 2.0832562e-06)
(0.0010803637 3.9985308e-06 1.7830727e-06)
(0.0010519319 3.6227016e-06 1.5379303e-06)
(0.0010260266 3.2825612e-06 1.3384456e-06)
(0.0010023485 2.9761345e-06 1.1759311e-06)
(0.000980639 2.7016054e-06 1.0419378e-06)
(0.00096067382 2.4565434e-06 9.3203965e-07)
(0.00094225486 2.2381454e-06 8.4217608e-07)
(0.00092520828 2.0440071e-06 7.6794711e-07)
(0.00090938315 1.871878e-06 7.0604712e-07)
(0.00089464824 1.7195555e-06 6.5403307e-07)
(0.00088088894 1.584936e-06 6.0990505e-07)
(0.00086800516 1.4660596e-06 5.720216e-07)
(0.00085590952 1.3611379e-06 5.3906466e-07)
(0.00084452564 1.2685491e-06 5.099835e-07)
(0.00083378674 1.186841e-06 4.8395102e-07)
(0.00082363434 1.1147173e-06 4.6031529e-07)
(0.00081401722 1.0509692e-06 4.3854727e-07)
(0.00080489033 9.9436685e-07 4.1816196e-07)
(0.00079621397 9.4402233e-07 3.9884488e-07)
(0.00078795323 8.9924162e-07 3.8040472e-07)
(0.00078007739 8.5940422e-07 3.6272222e-07)
(0.00077255927 8.2394098e-07 3.4574373e-07)
(0.00076537476 7.923349e-07 3.2946235e-07)
(0.00075850223 7.641332e-07 3.1393988e-07)
(0.00075192203 7.3896308e-07 2.9928472e-07)
(0.00074561586 7.1654578e-07 2.8566199e-07)
(0.00073956611 6.967085e-07 2.7332241e-07)
(0.0007337551 6.7937377e-07 2.6257791e-07)
(0.00072816369 6.6448306e-07 2.5440888e-07)
(0.00072277167 6.5252028e-07 2.4817569e-07)
(0.00071755731 6.4360147e-07 2.4474356e-07)
(0.00071249621 6.378066e-07 2.4443924e-07)
(0.00070756229 6.3511756e-07 2.4744713e-07)
(0.00070272878 6.3535032e-07 2.5374259e-07)
(0.00069797004 6.3797708e-07 2.6322566e-07)
(0.00069326036 6.4156226e-07 2.7848007e-07)
(0.00068857432 6.4595839e-07 2.9727722e-07)
(0.00068389108 6.5156353e-07 3.1776246e-07)
(0.00067919275 6.5775648e-07 3.4114877e-07)
(0.00067446357 6.6434792e-07 3.6753641e-07)
(0.00066969152 6.7145308e-07 3.9666276e-07)
(0.00066487009 6.7874318e-07 4.2738486e-07)
(0.00066000224 6.8510324e-07 4.5773039e-07)
(0.00065510426 6.8859016e-07 4.8537855e-07)
(0.00065020842 6.8653271e-07 5.0829561e-07)
(0.00064535784 6.7538284e-07 5.2804889e-07)
(0.00064060724 6.5557693e-07 5.3726555e-07)
(0.00063601993 6.2680438e-07 5.3632956e-07)
(0.00063165628 5.8928432e-07 5.2625774e-07)
(0.00062757269 5.4326782e-07 5.0760442e-07)
(0.00062381864 4.9053375e-07 4.8133108e-07)
(0.0006204338 4.3278207e-07 4.4829742e-07)
(0.00061744825 3.7133889e-07 4.0931531e-07)
(0.00061488151 3.079543e-07 3.6567873e-07)
(0.00061274019 2.4460377e-07 3.191187e-07)
(0.00061101663 1.8341679e-07 2.7145612e-07)
(0.0006096884 1.2776954e-07 2.2427781e-07)
(0.0006087224 7.7869913e-08 1.7956038e-07)
(0.00060807724 3.4704165e-08 1.385281e-07)
(0.00060769899 -2.856375e-09 9.9567281e-08)
(0.00060753346 -2.8966631e-08 6.6635443e-08)
(0.00060753591 -4.7067094e-08 3.8788381e-08)
(0.00060766196 -5.9164077e-08 1.7536219e-08)
(0.00060787063 -6.5651668e-08 2.2234057e-09)
(0.00060812711 -6.7173002e-08 -8.1753296e-09)
(0.00060840557 -6.4167379e-08 -1.3057597e-08)
(0.00060868602 -5.915272e-08 -1.6173606e-08)
(0.00060895377 -5.2945654e-08 -1.790896e-08)
(0.0006092003 -4.6202445e-08 -1.8678998e-08)
(0.00060942093 -3.9371388e-08 -1.8823873e-08)
(0.00060961442 -3.2527564e-08 -1.9461759e-08)
(0.00060978156 -2.6286211e-08 -1.9884645e-08)
(0.00060992345 -2.0671399e-08 -1.9672613e-08)
(0.00061005345 -1.8332032e-08 -2.0725476e-08)
(0.00061012459 -5.9779151e-09 -1.1012094e-08)
(0.0095316341 0.00033126834 0.00022322805)
(0.0092715573 0.00041100036 0.00027042856)
(0.0087755957 0.00040315261 0.00026055499)
(0.0081526888 0.00038217917 0.00024249716)
(0.0075301341 0.0003530912 0.00022099862)
(0.0069424852 0.00031540673 0.00019648235)
(0.0063910876 0.0002730846 0.00017102683)
(0.0058790528 0.00023029407 0.00014652324)
(0.0054118853 0.00019000145 0.00012410725)
(0.0049925197 0.00015421606 0.00010436284)
(0.0046204685 0.00012406592 8.7475111e-05)
(0.0042930205 9.9794039e-05 7.3323448e-05)
(0.0040062954 8.094347e-05 6.1597649e-05)
(0.0037558638 6.666139e-05 5.1915391e-05)
(0.0035371742 5.5976696e-05 4.3904638e-05)
(0.0033458761 4.7984267e-05 3.7244467e-05)
(0.0031780255 4.1934915e-05 3.1675922e-05)
(0.0030301756 3.7256419e-05 2.6996778e-05)
(0.0028993842 3.3535602e-05 2.3050339e-05)
(0.0027831745 3.0485427e-05 1.9714029e-05)
(0.0026794749 2.7911501e-05 1.6890116e-05)
(0.0025865547 2.5684237e-05 1.4499008e-05)
(0.0025029647 2.3717985e-05 1.2474617e-05)
(0.0024274856 2.19563e-05 1.0761224e-05)
(0.0023590858 2.0361715e-05 9.3115578e-06)
(0.0022968874 1.8909086e-05 8.0852339e-06)
(0.0022401383 1.7581336e-05 7.047814e-06)
(0.0021881921 1.6366403e-05 6.1700811e-06)
(0.0021404906 1.5254418e-05 5.426588e-06)
(0.0020965511 1.4237497e-05 4.7950698e-06)
(0.0020559552 1.3307882e-05 4.2578888e-06)
(0.0020183382 1.2457989e-05 3.7998892e-06)
(0.001983381 1.168119e-05 3.4078504e-06)
(0.0019508055 1.0971523e-05 3.0709842e-06)
(0.0019203687 1.0323378e-05 2.7805087e-06)
(0.0018918583 9.731485e-06 2.5291061e-06)
(0.0018650885 9.19093e-06 2.3106278e-06)
(0.0018398962 8.6971769e-06 2.1199101e-06)
(0.0018161384 8.2460711e-06 1.952611e-06)
(0.0017936896 7.8338457e-06 1.8050814e-06)
(0.0017724391 7.4571036e-06 1.6742432e-06)
(0.0017522896 7.1127771e-06 1.5575076e-06)
(0.0017331551 6.7980438e-06 1.4527437e-06)
(0.00171496 6.5105041e-06 1.358077e-06)
(0.0016976373 6.2480911e-06 1.2718762e-06)
(0.0016811279 6.0089746e-06 1.1927545e-06)
(0.0016653796 5.7915058e-06 1.1195718e-06)
(0.0016503462 5.5942041e-06 1.0514237e-06)
(0.0016359867 5.4157454e-06 9.8766103e-07)
(0.0016222647 5.2549727e-06 9.2788418e-07)
(0.0016091473 5.1109156e-06 8.7197701e-07)
(0.0015966046 4.9827903e-06 8.2010976e-07)
(0.0015846083 4.8699565e-06 7.726965e-07)
(0.001573131 4.771858e-06 7.3054368e-07)
(0.0015621453 4.6886996e-06 6.9422126e-07)
(0.0015516232 4.619996e-06 6.6466225e-07)
(0.0015415355 4.5650123e-06 6.4241845e-07)
(0.0015318515 4.5226275e-06 6.2774021e-07)
(0.0015225401 4.4911174e-06 6.2051417e-07)
(0.0015135709 4.4679388e-06 6.2023833e-07)
(0.0015049131 4.4486993e-06 6.2655553e-07)
(0.0014965366 4.4300118e-06 6.3843118e-07)
(0.0014884137 4.4095963e-06 6.5583679e-07)
(0.0014805181 4.3837266e-06 6.7840458e-07)
(0.0014728266 4.3489248e-06 7.0603438e-07)
(0.0014653201 4.3012974e-06 7.3989343e-07)
(0.0014579863 4.2363678e-06 7.7915758e-07)
(0.0014508238 4.1496548e-06 8.2031437e-07)
(0.0014438457 4.0363932e-06 8.5851376e-07)
(0.0014370812 3.8914611e-06 8.8838066e-07)
(0.0014305719 3.7082705e-06 9.0504374e-07)
(0.0014243699 3.4867795e-06 9.0492648e-07)
(0.0014185322 3.228405e-06 8.8878914e-07)
(0.0014131112 2.9360347e-06 8.5991344e-07)
(0.001408154 2.6160487e-06 8.176574e-07)
(0.0014037 2.2782101e-06 7.6422885e-07)
(0.0013997756 1.9320576e-06 7.010993e-07)
(0.0013963961 1.5863455e-06 6.2923914e-07)
(0.0013935656 1.2500827e-06 5.5052524e-07)
(0.0013912742 9.3227104e-07 4.6811646e-07)
(0.0013894969 6.4117656e-07 3.8436155e-07)
(0.0013881928 3.8785589e-07 3.0226912e-07)
(0.0013873103 1.7235275e-07 2.2574327e-07)
(0.0013867913 -3.5258992e-09 1.5655355e-07)
(0.001386569 -1.3699606e-07 9.9358066e-08)
(0.0013865823 -2.309771e-07 5.3810369e-08)
(0.001386769 -2.9164912e-07 1.8941752e-08)
(0.0013870773 -3.2310355e-07 -4.706058e-09)
(0.0013874532 -3.3085771e-07 -1.9673882e-08)
(0.0013878563 -3.2026008e-07 -2.9083733e-08)
(0.0013882594 -2.9551988e-07 -3.4481462e-08)
(0.0013886431 -2.6321435e-07 -3.7380791e-08)
(0.0013889945 -2.2729671e-07 -3.8351803e-08)
(0.0013893067 -1.9051831e-07 -3.8136486e-08)
(0.0013895769 -1.5475936e-07 -3.7120003e-08)
(0.0013898055 -1.2059995e-07 -3.5964791e-08)
(0.0013899947 -8.9285305e-08 -3.4811784e-08)
(0.0013901466 -6.150424e-08 -3.3283364e-08)
(0.0013902801 -3.7471158e-08 -3.38414e-08)
(0.0013903323 2.0760321e-10 -1.8439171e-08)
(0.0095221042 0.00021184344 0.00022166717)
(0.0092696727 0.00029877262 0.00026619207)
(0.0088656918 0.00031673595 0.00025521753)
(0.0083755039 0.00031746533 0.00023861385)
(0.0078887707 0.00030843032 0.0002198599)
(0.0074275525 0.0002884949 0.000198492)
(0.0069881633 0.00026048879 0.00017616922)
(0.0065697104 0.00022854902 0.00015443537)
(0.0061754874 0.00019595979 0.00013412448)
(0.0058085986 0.00016503392 0.00011566412)
(0.0054705172 0.00013727618 9.9258758e-05)
(0.0051614511 0.00011344406 8.4936242e-05)
(0.0048807723 9.3677741e-05 7.2590218e-05)
(0.0046272183 7.7707929e-05 6.2035748e-05)
(0.0043990492 6.5053335e-05 5.3056814e-05)
(0.0041942283 5.5161171e-05 4.5437222e-05)
(0.0040105919 4.7491236e-05 3.8977486e-05)
(0.0038459789 4.1559574e-05 3.3502057e-05)
(0.0036983188 3.6956479e-05 2.8860518e-05)
(0.0035656835 3.3349409e-05 2.4925552e-05)
(0.0034463155 3.0477609e-05 2.1589706e-05)
(0.0033386361 2.814271e-05 1.8762075e-05)
(0.003241243 2.6197918e-05 1.636543e-05)
(0.0031528998 2.4537327e-05 1.4333886e-05)
(0.0030725225 2.3086225e-05 1.2611147e-05)
(0.0029991642 2.179318e-05 1.1148866e-05)
(0.0029319989 2.0623544e-05 9.9052474e-06)
(0.0028703071 1.9554175e-05 8.8446066e-06)
(0.0028134621 1.856921e-05 7.9373523e-06)
(0.002760919 1.7657799e-05 7.1586198e-06)
(0.0027122046 1.6811671e-05 6.4879412e-06)
(0.0026669065 1.602415e-05 5.9081407e-06)
(0.0026246651 1.5290074e-05 5.404653e-06)
(0.0025851664 1.4605381e-05 4.9653577e-06)
(0.0025481364 1.3966565e-05 4.580239e-06)
(0.0025133358 1.3370455e-05 4.2409758e-06)
(0.0024805549 1.2814153e-05 3.9406207e-06)
(0.00244961 1.2294982e-05 3.6733711e-06)
(0.0024203396 1.181048e-05 3.434369e-06)
(0.0023926021 1.1358404e-05 3.2195401e-06)
(0.0023662726 1.0936728e-05 3.0254493e-06)
(0.002341241 1.0543685e-05 2.8491953e-06)
(0.0023174104 1.0177783e-05 2.6883132e-06)
(0.0022946949 9.8376906e-06 2.5406726e-06)
(0.0022730192 9.5222427e-06 2.4044232e-06)
(0.0022523163 9.2304326e-06 2.27797e-06)
(0.0022325276 8.9613627e-06 2.1599695e-06)
(0.0022136015 8.7141911e-06 2.0493246e-06)
(0.0021954927 8.488085e-06 1.9452087e-06)
(0.0021781614 8.2821627e-06 1.8470985e-06)
(0.0021615728 8.095466e-06 1.7548093e-06)
(0.0021456962 7.9269425e-06 1.6685218e-06)
(0.0021305038 7.7754305e-06 1.5887643e-06)
(0.0021159702 7.6396793e-06 1.5163958e-06)
(0.0021020711 7.5188051e-06 1.4523722e-06)
(0.0020887828 7.4116282e-06 1.3976773e-06)
(0.0020760817 7.3169719e-06 1.3529613e-06)
(0.0020639436 7.2336025e-06 1.3184066e-06)
(0.0020523448 7.15993e-06 1.2936702e-06)
(0.0020412625 7.0935901e-06 1.2780031e-06)
(0.0020306751 7.0307247e-06 1.2707185e-06)
(0.0020205617 6.9667571e-06 1.2714419e-06)
(0.002010903 6.8956819e-06 1.2807602e-06)
(0.0020016797 6.8098145e-06 1.2995723e-06)
(0.0019928732 6.7014328e-06 1.3285677e-06)
(0.0019844648 6.5617081e-06 1.3676816e-06)
(0.0019764388 6.3823229e-06 1.4145066e-06)
(0.0019687864 6.1583539e-06 1.4642308e-06)
(0.0019615092 5.8873992e-06 1.5103573e-06)
(0.0019546218 5.5702164e-06 1.5449595e-06)
(0.0019481503 5.2084833e-06 1.5598749e-06)
(0.0019421299 4.8066184e-06 1.5498766e-06)
(0.0019365963 4.3707195e-06 1.5123771e-06)
(0.0019315798 3.9075742e-06 1.4462945e-06)
(0.0019271051 3.4262122e-06 1.3551337e-06)
(0.0019231871 2.9371219e-06 1.2457737e-06)
(0.0019198288 2.4503595e-06 1.1222402e-06)
(0.0019170252 1.9760811e-06 9.8667201e-07)
(0.0019147635 1.5250643e-06 8.4275324e-07)
(0.0019130197 1.1087263e-06 6.9599707e-07)
(0.0019117597 7.3462201e-07 5.4958334e-07)
(0.001910931 4.0440508e-07 4.0703523e-07)
(0.001910467 1.3081824e-07 2.7208914e-07)
(0.0019103137 -8.1313643e-08 1.5193636e-07)
(0.0019104274 -2.3520547e-07 5.5808522e-08)
(0.0019107367 -3.4313233e-07 -1.1769506e-08)
(0.001911143 -4.1157424e-07 -5.3563009e-08)
(0.0019116005 -4.4436794e-07 -7.7850656e-08)
(0.0019120751 -4.4708743e-07 -9.0697382e-08)
(0.0019125399 -4.2692423e-07 -9.5476832e-08)
(0.001912976 -3.8987258e-07 -9.4717621e-08)
(0.001913371 -3.4259885e-07 -9.0532785e-08)
(0.0019137181 -2.9055673e-07 -8.4260758e-08)
(0.0019140155 -2.3761388e-07 -7.6885866e-08)
(0.0019142643 -1.8636332e-07 -6.9200641e-08)
(0.0019144678 -1.3723797e-07 -6.2082956e-08)
(0.0019146295 -9.1740542e-08 -5.5770847e-08)
(0.0019147534 -4.8992027e-08 -4.9820378e-08)
(0.0019148612 -7.3550394e-09 -4.6489158e-08)
(0.0019148863 4.1546761e-08 -2.863675e-08)
(0.0095012177 0.00013951968 0.00022234319)
(0.0092132026 0.00022408573 0.00026699435)
(0.0088017463 0.00025700443 0.00025524083)
(0.0083305239 0.00026689993 0.00023817521)
(0.0078753456 0.0002650143 0.00021937618)
(0.0074526113 0.00025294758 0.00019821657)
(0.0070563314 0.00023294695 0.00017633303)
(0.0066826334 0.00020834836 0.00015521764)
(0.0063317447 0.0001820166 0.00013556958)
(0.0060045753 0.00015602041 0.0001176757)
(0.0057013807 0.00013178845 0.00010165431)
(0.0054219042 0.00011019388 8.7510229e-05)
(0.0051655887 9.1620878e-05 7.5159207e-05)
(0.004931596 7.6082278e-05 6.4461445e-05)
(0.004718806 6.3355947e-05 5.525162e-05)
(0.0045258715 5.3099033e-05 4.7358803e-05)
(0.0043513023 4.4927755e-05 4.0618187e-05)
(0.0041935442 3.8466964e-05 3.4877408e-05)
(0.0040510425 3.3377227e-05 2.999927e-05)
(0.0039222881 2.9366699e-05 2.5862199e-05)
(0.0038058502 2.6193519e-05 2.2359504e-05)
(0.0037003966 2.3662914e-05 1.9398114e-05)
(0.0036047055 2.1621709e-05 1.6897187e-05)
(0.0035176691 1.9951856e-05 1.4786739e-05)
(0.0034382933 1.8563911e-05 1.3006277e-05)
(0.0033656926 1.7391239e-05 1.1503112e-05)
(0.0032990829 1.6384492e-05 1.0232055e-05)
(0.0032377733 1.5506854e-05 9.1552268e-06)
(0.0031811577 1.4732094e-05 8.2409784e-06)
(0.0031287066 1.4041368e-05 7.4626337e-06)
(0.0030799581 1.3420343e-05 6.7978448e-06)
(0.0030345097 1.2857925e-05 6.2279108e-06)
(0.0029920105 1.2345646e-05 5.7371301e-06)
(0.0029521551 1.1876951e-05 5.3123855e-06)
(0.0029146775 1.1446542e-05 4.9427876e-06)
(0.0028793459 1.1050009e-05 4.6193209e-06)
(0.0028459581 1.0683636e-05 4.3345135e-06)
(0.0028143372 1.034425e-05 4.0821818e-06)
(0.0027843289 1.0029143e-05 3.8572032e-06)
(0.0027557975 9.736006e-06 3.6553346e-06)
(0.0027286244 9.4628981e-06 3.4730526e-06)
(0.0027027048 9.2082387e-06 3.3074186e-06)
(0.002677947 8.9707794e-06 3.1559701e-06)
(0.0026542698 8.7495475e-06 3.016625e-06)
(0.002631602 8.543821e-06 2.8876185e-06)
(0.0026098807 8.353091e-06 2.7674568e-06)
(0.0025890508 8.1769779e-06 2.6548986e-06)
(0.0025690637 8.0151316e-06 2.5489525e-06)
(0.0025498773 7.8671248e-06 2.4489009e-06)
(0.0025314544 7.7323361e-06 2.3543269e-06)
(0.0025137626 7.6098363e-06 2.2651666e-06)
(0.0024967735 7.4983151e-06 2.1817326e-06)
(0.0024804613 7.3960523e-06 2.1047148e-06)
(0.0024648026 7.3009855e-06 2.0351274e-06)
(0.0024497753 7.211015e-06 1.9741575e-06)
(0.0024353578 7.1239287e-06 1.9229807e-06)
(0.0024215292 7.0377333e-06 1.8824859e-06)
(0.002408269 6.9507635e-06 1.8530864e-06)
(0.0023955583 6.8614464e-06 1.8346501e-06)
(0.0023833806 6.7677835e-06 1.8266271e-06)
(0.0023717218 6.6664807e-06 1.8283442e-06)
(0.0023605707 6.5526263e-06 1.8393505e-06)
(0.0023499173 6.4185419e-06 1.8597146e-06)
(0.0023397526 6.2534418e-06 1.8896138e-06)
(0.0023300665 6.0490453e-06 1.928194e-06)
(0.0023208469 5.7955848e-06 1.9733893e-06)
(0.0023120831 5.4857031e-06 2.0217239e-06)
(0.0023037696 5.1183517e-06 2.0673413e-06)
(0.0022959097 4.696765e-06 2.1031695e-06)
(0.0022885185 4.231672e-06 2.1210167e-06)
(0.0022816227 3.7362925e-06 2.1141976e-06)
(0.0022752592 3.2239632e-06 2.0790743e-06)
(0.0022694666 2.7062555e-06 2.0146849e-06)
(0.0022642772 2.1949568e-06 1.9222903e-06)
(0.0022597164 1.6998396e-06 1.8051648e-06)
(0.0022557915 1.2314558e-06 1.6693956e-06)
(0.0022524939 7.9917794e-07 1.517478e-06)
(0.0022498093 4.1300834e-07 1.3479051e-06)
(0.0022477137 8.2350877e-08 1.1627501e-06)
(0.0022461711 -1.8695845e-07 9.686495e-07)
(0.0022451324 -3.9447058e-07 7.7359036e-07)
(0.002244548 -5.4698176e-07 5.8859458e-07)
(0.0022443705 -6.4073111e-07 4.1906179e-07)
(0.0022445317 -6.8041634e-07 2.7191148e-07)
(0.0022449571 -6.7991345e-07 1.4830853e-07)
(0.0022455766 -6.4878357e-07 4.662291e-08)
(0.002246319 -5.9653668e-07 -2.7258607e-08)
(0.0022470603 -5.3336694e-07 -7.0592816e-08)
(0.0022477537 -4.6675875e-07 -9.4545835e-08)
(0.0022483808 -3.9921469e-07 -1.0634775e-07)
(0.0022489327 -3.2921004e-07 -1.1053271e-07)
(0.0022494054 -2.5918388e-07 -1.0938825e-07)
(0.0022498001 -1.9271496e-07 -1.0443813e-07)
(0.0022501223 -1.3225064e-07 -9.7148215e-08)
(0.0022503801 -7.8373033e-08 -8.8736095e-08)
(0.0022505806 -3.0458022e-08 -8.0629729e-08)
(0.0022507301 1.3389386e-08 -7.2432391e-08)
(0.002250836 5.5662785e-08 -6.4810906e-08)
(0.0022509194 9.8506931e-08 -6.091474e-08)
(0.0022509233 1.366313e-07 -4.106041e-08)
(0.0094902186 9.6729043e-05 0.00022275035)
(0.0091764743 0.00016632772 0.00026777806)
(0.0087448368 0.00019969452 0.00025545318)
(0.0082663774 0.00021102034 0.00023759674)
(0.0078120578 0.00021099811 0.00021814158)
(0.0073949795 0.00020282637 0.00019645123)
(0.0070086754 0.0001882729 0.00017417585)
(0.0066486975 0.00016968616 0.00015283738)
(0.0063140708 0.00014928872 0.00013311174)
(0.0060044512 0.00012874723 0.00011522665)
(0.005719077 0.00010922722 9.9245037e-05)
(0.0054569356 9.1484985e-05 8.5137474e-05)
(0.0052169591 7.5919219e-05 7.2805717e-05)
(0.0049980212 6.2640067e-05 6.2109905e-05)
(0.0047988935 5.1558653e-05 5.2892151e-05)
(0.0046182459 4.2470326e-05 4.4991312e-05)
(0.0044546803 3.5117098e-05 3.8251295e-05)
(0.0043067726 2.9229051e-05 3.2525719e-05)
(0.0041731092 2.4549321e-05 2.7680338e-05)
(0.0040523179 2.0847441e-05 2.3593955e-05)
(0.0039430915 1.7924953e-05 2.015843e-05)
(0.0038442043 1.5616201e-05 1.727817e-05)
(0.0037545233 1.3786333e-05 1.4869343e-05)
(0.003673013 1.2327852e-05 1.2858921e-05)
(0.0035987372 1.1156443e-05 1.1183438e-05)
(0.0035308566 1.0206684e-05 9.7873146e-06)
(0.0034686235 9.4293126e-06 8.6235013e-06)
(0.0034113764 8.78562e-06 7.6528301e-06)
(0.0033585338 8.247802e-06 6.8425507e-06)
(0.003309586 7.7949425e-06 6.165177e-06)
(0.0032640884 7.4104512e-06 5.5977178e-06)
(0.0032216535 7.0813485e-06 5.1210101e-06)
(0.0031819447 6.7976148e-06 4.7190901e-06)
(0.0031446693 6.551429e-06 4.3786983e-06)
(0.0031095736 6.3365387e-06 4.0888767e-06)
(0.0030764372 6.1478577e-06 3.8406005e-06)
(0.0030450687 5.9812138e-06 3.6264468e-06)
(0.0030153017 5.8331591e-06 3.4403314e-06)
(0.0029869915 5.7008456e-06 3.2772717e-06)
(0.0029600119 5.5819242e-06 3.1331962e-06)
(0.0029342526 5.4744909e-06 3.0047795e-06)
(0.0029096174 5.3770428e-06 2.889303e-06)
(0.0028860216 5.2884395e-06 2.7845431e-06)
(0.0028633913 5.2078602e-06 2.6886681e-06)
(0.0028416613 5.1347613e-06 2.6001717e-06)
(0.0028207745 5.0688165e-06 2.5178182e-06)
(0.0028006808 5.0098266e-06 2.440612e-06)
(0.002781336 4.9576081e-06 2.3677905e-06)
(0.0027627016 4.9118495e-06 2.2988344e-06)
(0.0027447436 4.8719578e-06 2.2334945e-06)
(0.0027274317 4.8369006e-06 2.171829e-06)
(0.002710739 4.8050771e-06 2.1142335e-06)
(0.0026946406 4.7742498e-06 2.0614516e-06)
(0.0026791128 4.7415941e-06 2.0145305e-06)
(0.0026641331 4.7039162e-06 1.9747175e-06)
(0.0026496786 4.6578228e-06 1.9432851e-06)
(0.0026357271 4.6000918e-06 1.9213101e-06)
(0.002622257 4.5279008e-06 1.9094896e-06)
(0.0026092482 4.4387173e-06 1.9080595e-06)
(0.0025966839 4.3298895e-06 1.9168378e-06)
(0.0025845507 4.1978071e-06 1.9353932e-06)
(0.0025728386 4.0376307e-06 1.9631754e-06)
(0.0025615396 3.8420804e-06 1.9999306e-06)
(0.0025506501 3.5967893e-06 2.045652e-06)
(0.0025401665 3.3011358e-06 2.0972021e-06)
(0.0025300829 2.9461426e-06 2.1516516e-06)
(0.0025203994 2.5302252e-06 2.205544e-06)
(0.0025111224 2.0573456e-06 2.253125e-06)
(0.0025022703 1.5400573e-06 2.2887548e-06)
(0.002493868 9.9270673e-07 2.3045364e-06)
(0.0024859518 4.339447e-07 2.294554e-06)
(0.0024785707 -1.1679405e-07 2.2545463e-06)
(0.0024717768 -6.439678e-07 2.1846989e-06)
(0.0024656164 -1.1329055e-06 2.0868611e-06)
(0.0024601268 -1.567553e-06 1.9551725e-06)
(0.0024553372 -1.9399646e-06 1.7981672e-06)
(0.0024512635 -2.2409855e-06 1.6197369e-06)
(0.0024479054 -2.4609791e-06 1.4280397e-06)
(0.0024452488 -2.592783e-06 1.2315313e-06)
(0.0024432602 -2.6348791e-06 1.0359014e-06)
(0.0024418877 -2.5895206e-06 8.4466099e-07)
(0.0024410687 -2.4621788e-06 6.6422799e-07)
(0.0024407292 -2.272504e-06 5.0022797e-07)
(0.0024407832 -2.0418265e-06 3.5707971e-07)
(0.0024411429 -1.7864421e-06 2.3580615e-07)
(0.0024417261 -1.5205374e-06 1.3511736e-07)
(0.0024424597 -1.2573892e-06 5.5786747e-08)
(0.0024432813 -1.0098006e-06 -3.094881e-10)
(0.0024441169 -7.8729661e-07 -3.8581498e-08)
(0.002444879 -5.9297283e-07 -5.9777708e-08)
(0.0024455485 -4.253764e-07 -7.0879228e-08)
(0.00244612 -2.8276174e-07 -7.5482382e-08)
(0.0024465959 -1.6409008e-07 -7.5679376e-08)
(0.0024469836 -6.7584153e-08 -7.2983278e-08)
(0.0024472927 9.69765e-09 -6.8661511e-08)
(0.002447533 7.0381144e-08 -6.3538177e-08)
(0.0024477148 1.2164612e-07 -5.8109515e-08)
(0.002447846 1.6731308e-07 -5.2472383e-08)
(0.0024479459 2.0972902e-07 -4.882572e-08)
(0.0024479529 2.3824691e-07 -2.7917368e-08)
(0.0094842869 6.6888386e-05 0.00022289394)
(0.0091547848 0.00011905287 0.00026828412)
(0.0087071699 0.0001477286 0.00025582692)
(0.0082190965 0.00015893211 0.00023762657)
(0.007760188 0.00016026183 0.00021785263)
(0.0073411661 0.00015505059 0.00019585396)
(0.0069551171 0.00014481437 0.0001732651)
(0.0065976891 0.00013120998 0.00015164102)
(0.0062676388 0.00011592253 0.00013168163)
(0.005964129 0.00010027826 0.0001136127)
(0.0056859071 8.5207598e-05 9.7485317e-05)
(0.0054315306 7.132425e-05 8.3260341e-05)
(0.0051995722 5.8979078e-05 7.0834016e-05)
(0.0049886316 4.830749e-05 6.0063812e-05)
(0.0047972939 3.9288142e-05 5.0790691e-05)
(0.004624118 3.1801535e-05 4.2852953e-05)
(0.0044676516 2.5676677e-05 3.6093935e-05)
(0.004326454 2.0723601e-05 3.0366316e-05)
(0.0041991193 1.6754233e-05 2.553447e-05)
(0.0040842964 1.3594667e-05 2.1475471e-05)
(0.0039807049 1.1091392e-05 1.807923e-05)
(0.0038871474 9.1134592e-06 1.5248127e-05)
(0.0038025172 7.5521371e-06 1.2896328e-05)
(0.0037258028 6.3190998e-06 1.0948924e-05)
(0.0036560879 5.3436685e-06 9.3407856e-06)
(0.0035925504 4.5685174e-06 8.0148127e-06)
(0.0035344563 3.9534409e-06 6.922188e-06)
(0.0034811556 3.4611576e-06 6.0233683e-06)
(0.0034320768 3.0665558e-06 5.2845899e-06)
(0.0033867178 2.7509435e-06 4.6775549e-06)
(0.0033446402 2.4988936e-06 4.1788841e-06)
(0.0033054629 2.298102e-06 3.7691457e-06)
(0.0032688547 2.1388967e-06 3.4321838e-06)
(0.0032345285 2.0136269e-06 3.1546213e-06)
(0.0032022355 1.9161436e-06 2.9254183e-06)
(0.0031717605 1.8414251e-06 2.7355044e-06)
(0.0031429169 1.7853217e-06 2.5774302e-06)
(0.0031155431 1.7443848e-06 2.4451011e-06)
(0.0030894991 1.7157454e-06 2.3335419e-06)
(0.0030646632 1.6970262e-06 2.238707e-06)
(0.0030409297 1.6862904e-06 2.1573134e-06)
(0.0030182062 1.6819949e-06 2.0867032e-06)
(0.0029964123 1.6829582e-06 2.0247307e-06)
(0.0029754776 1.6883165e-06 1.9696664e-06)
(0.0029553405 1.6974772e-06 1.9201156e-06)
(0.0029359468 1.7100574e-06 1.8749672e-06)
(0.002917249 1.7257989e-06 1.8333549e-06)
(0.0028992054 1.7444539e-06 1.7946325e-06)
(0.002881779 1.7656426e-06 1.7583819e-06)
(0.002864937 1.7886933e-06 1.7244234e-06)
(0.0028486498 1.8124778e-06 1.6928366e-06)
(0.00283289 1.8352541e-06 1.6639915e-06)
(0.0028176321 1.8545698e-06 1.6385529e-06)
(0.0028028507 1.8672673e-06 1.6174565e-06)
(0.0027885208 1.8696384e-06 1.6018299e-06)
(0.0027746167 1.8576221e-06 1.5928626e-06)
(0.0027611122 1.8271178e-06 1.5916261e-06)
(0.0027479814 1.7742642e-06 1.5989101e-06)
(0.0027351998 1.6954861e-06 1.6151272e-06)
(0.0027227452 1.5872039e-06 1.6402834e-06)
(0.0027105992 1.4452106e-06 1.6740809e-06)
(0.0026987469 1.2639299e-06 1.7157251e-06)
(0.0026871736 1.0375962e-06 1.7645908e-06)
(0.0026758771 7.6628486e-07 1.8241641e-06)
(0.0026648536 4.3281488e-07 1.8848169e-06)
(0.0026540952 3.5135898e-08 1.9450805e-06)
(0.0026436082 -4.2313535e-07 2.0004269e-06)
(0.0026334075 -9.3386782e-07 2.0457729e-06)
(0.0026235197 -1.4808518e-06 2.0744188e-06)
(0.0026139923 -2.0465571e-06 2.082236e-06)
(0.0026048896 -2.6097189e-06 2.0648845e-06)
(0.0025962814 -3.1471675e-06 2.0184729e-06)
(0.0025882406 -3.6389012e-06 1.9413378e-06)
(0.0025808399 -4.068778e-06 1.8351713e-06)
(0.0025741414 -4.4213516e-06 1.7118266e-06)
(0.0025681926 -4.6892488e-06 1.5696097e-06)
(0.0025630248 -4.8637014e-06 1.4120062e-06)
(0.00255865 -4.9363001e-06 1.2425466e-06)
(0.0025550607 -4.9021625e-06 1.0660977e-06)
(0.0025522278 -4.7619194e-06 8.897218e-07)
(0.0025501014 -4.5221092e-06 7.214046e-07)
(0.0025486147 -4.1964349e-06 5.6644264e-07)
(0.0025476866 -3.8070425e-06 4.2786485e-07)
(0.002547227 -3.3798077e-06 3.0800602e-07)
(0.0025471429 -2.9347709e-06 2.0689033e-07)
(0.0025473444 -2.4910456e-06 1.2407998e-07)
(0.0025477503 -2.0668342e-06 5.9847986e-08)
(0.0025482901 -1.6740569e-06 1.3839256e-08)
(0.0025489042 -1.3164824e-06 -1.5186686e-08)
(0.0025495215 -9.9907234e-07 -3.0569344e-08)
(0.0025500953 -7.2773538e-07 -3.832954e-08)
(0.0025506079 -5.021429e-07 -4.1930115e-08)
(0.0025510527 -3.1858717e-07 -4.2735852e-08)
(0.0025514292 -1.7190697e-07 -4.1692981e-08)
(0.0025517405 -5.6553822e-08 -3.9459945e-08)
(0.0025519943 3.3295922e-08 -3.6013917e-08)
(0.0025521981 1.0484369e-07 -3.2609734e-08)
(0.0025523558 1.6543971e-07 -2.896983e-08)
(0.0025524787 2.1984568e-07 -2.6653011e-08)
(0.0025524805 2.6228156e-07 8.0839221e-09)
(0.00948098 4.4091328e-05 0.00022294617)
(0.0091421415 7.9977998e-05 0.00026864077)
(0.0086837946 0.00010161138 0.00025623374)
(0.0081879955 0.00011101733 0.00023790426)
(0.0077245849 0.00011275187 0.00021796756)
(0.0073028713 0.00010953672 0.00019577557)
(0.0069153822 0.00010265909 0.0001729516)
(0.0065578053 9.3265008e-05 0.0001510767)
(0.0062288395 8.2536603e-05 0.00013088083)
(0.005927422 7.1443488e-05 0.00011260337)
(0.0056520488 6.0670065e-05 9.6298047e-05)
(0.0054010536 5.0667864e-05 8.1925445e-05)
(0.005172814 4.1704168e-05 6.9380976e-05)
(0.0049657672 3.3896192e-05 5.8520491e-05)
(0.0047783751 2.7248471e-05 4.9182551e-05)
(0.0046091118 2.1691903e-05 4.1202606e-05)
(0.0044564717 1.7116446e-05 3.4420961e-05)
(0.0043189846 1.3394589e-05 2.868729e-05)
(0.0041952316 1.0396844e-05 2.3863109e-05)
(0.0040838588 8.001239e-06 1.9822877e-05)
(0.0039835897 6.0984581e-06 1.6454194e-05)
(0.0038932339 4.594014e-06 1.3657434e-05)
(0.0038116931 3.4085339e-06 1.1345033e-05)
(0.0037379637 2.4770938e-06 9.4405293e-06)
(0.0036711361 1.7476959e-06 7.8774563e-06)
(0.0036103958 1.1697513e-06 6.5994331e-06)
(0.003555013 7.1540157e-07 5.5544593e-06)
(0.00350434 3.6442799e-07 4.7044857e-06)
(0.0034578107 9.3879749e-08 4.0147782e-06)
(0.0034149249 -1.1454154e-07 3.4558482e-06)
(0.0033752454 -2.7331554e-07 3.0039501e-06)
(0.0033383918 -3.9193617e-07 2.6394873e-06)
(0.0033040342 -4.7804351e-07 2.3461908e-06)
(0.003271886 -5.3778202e-07 2.1106061e-06)
(0.0032416993 -5.7611268e-07 1.9216532e-06)
(0.0032132596 -5.9709601e-07 1.770238e-06)
(0.0031863809 -6.040928e-07 1.648923e-06)
(0.0031609026 -5.9989753e-07 1.5516541e-06)
(0.0031366854 -5.8683475e-07 1.4735153e-06)
(0.0031136085 -5.6682188e-07 1.4105371e-06)
(0.0030915668 -5.4142397e-07 1.3595234e-06)
(0.0030704692 -5.1188219e-07 1.3179086e-06)
(0.0030502359 -4.7914892e-07 1.2836428e-06)
(0.0030307972 -4.4391598e-07 1.2550912e-06)
(0.0030120923 -4.0666309e-07 1.2309656e-06)
(0.0029940677 -3.6769896e-07 1.210258e-06)
(0.0029766763 -3.2723564e-07 1.192205e-06)
(0.0029598765 -2.8548111e-07 1.1762588e-06)
(0.0029436314 -2.4275267e-07 1.1620859e-06)
(0.0029279078 -1.9961319e-07 1.1495655e-06)
(0.0029126754 -1.5701589e-07 1.1388084e-06)
(0.0028979058 -1.1643824e-07 1.130167e-06)
(0.0028835715 -7.9989312e-08 1.1242453e-06)
(0.0028696454 -5.0425978e-08 1.1218713e-06)
(0.0028560995 -3.1078926e-08 1.1240422e-06)
(0.0028429047 -2.5703707e-08 1.1318113e-06)
(0.0028300307 -3.8255957e-08 1.146167e-06)
(0.0028174469 -7.2670423e-08 1.1678868e-06)
(0.0028051229 -1.3277601e-07 1.1973778e-06)
(0.0027930296 -2.2242217e-07 1.2346008e-06)
(0.0027811408 -3.457835e-07 1.2790726e-06)
(0.0027694339 -5.0790699e-07 1.3300674e-06)
(0.0027578942 -7.1343753e-07 1.385861e-06)
(0.0027465014 -9.6008545e-07 1.4398151e-06)
(0.0027352459 -1.2633227e-06 1.4965425e-06)
(0.0027241336 -1.6222245e-06 1.5515523e-06)
(0.0027131726 -2.0334617e-06 1.5998603e-06)
(0.0027023846 -2.4882547e-06 1.636592e-06)
(0.0026918073 -2.9739955e-06 1.656643e-06)
(0.0026814958 -3.4711111e-06 1.6557399e-06)
(0.0026715228 -3.9584063e-06 1.6299792e-06)
(0.0026619726 -4.4159266e-06 1.5802039e-06)
(0.0026529354 -4.8261587e-06 1.5074269e-06)
(0.0026445005 -5.1752864e-06 1.4130491e-06)
(0.0026367456 -5.4534147e-06 1.3002198e-06)
(0.0026297337 -5.648442e-06 1.1706678e-06)
(0.0026235119 -5.7495614e-06 1.0281675e-06)
(0.0026181079 -5.7478117e-06 8.7833532e-07)
(0.0026135267 -5.6391668e-06 7.2791027e-07)