/*--------------------------------*- C++ -*----------------------------------*\
  =========                 |
  \\      /  F ield         | OpenFOAM: The Open Source CFD Toolbox
   \\    /   O peration     | Website:  https://openfoam.org
    \\  /    A nd           | Version:  7
     \\/     M anipulation  |
\*---------------------------------------------------------------------------*/
FoamFile
{
    version     2.0;
    format      ascii;
    class       surfaceScalarField;
    location    "1300/water";
    object      phi;
}
// * * * * * * * * * * * * * * * * * * * * * * * * * * * * * * * * * * * * * //

dimensions      [1 0 -1 0 0 0 0];

internalField   nonuniform List<scalar> 
156660
(
9.9057239e-05
6.0010402e-06
6.0528092e-06
8.6847497e-05
6.0555113e-06
6.1542307e-06
7.5687891e-05
5.5111363e-06
5.6484701e-06
6.5441704e-05
5.0404181e-06
5.2057689e-06
5.6267661e-05
4.4956436e-06
4.6783991e-06
4.8318019e-05
3.8797648e-06
4.0698777e-06
4.1624776e-05
3.2524448e-06
3.4407981e-06
3.6124897e-05
2.660462e-06
2.839417e-06
3.1692235e-05
2.1345127e-06
2.2981489e-06
2.8162841e-05
1.6926975e-06
1.8366964e-06
2.5361437e-05
1.3399933e-06
1.4614113e-06
2.3124664e-05
1.0698476e-06
1.1669256e-06
2.1315127e-05
8.6875419e-07
9.4078223e-07
1.9825714e-05
7.2110064e-07
7.6831272e-07
1.8577278e-05
6.1248245e-07
6.3595305e-07
1.7513255e-05
5.3125219e-07
5.327715e-07
1.6593744e-05
4.6879724e-07
4.5071348e-07
1.5790433e-05
4.1913718e-07
3.8417384e-07
1.5082784e-05
3.7829069e-07
3.2935849e-07
1.4455417e-05
3.4367126e-07
2.8369563e-07
1.3896409e-05
3.136141e-07
2.4539334e-07
1.339622e-05
2.8704451e-07
2.1314452e-07
1.2947015e-05
2.6326032e-07
1.8594509e-07
1.2542237e-05
2.4179364e-07
1.6298462e-07
1.2176318e-05
2.2232208e-07
1.4359688e-07
1.1844484e-05
2.046148e-07
1.2721878e-07
1.1542609e-05
1.8849493e-07
1.1337973e-07
1.1267116e-05
1.7381573e-07
1.0167792e-07
1.1014892e-05
1.6046268e-07
9.176083e-08
1.0783252e-05
1.4833966e-07
8.3300587e-08
1.0569851e-05
1.3734906e-07
7.6052132e-08
1.0372614e-05
1.2738865e-07
6.9848317e-08
1.0189731e-05
1.1836807e-07
6.4514801e-08
1.001963e-05
1.1020447e-07
5.9896605e-08
9.8609388e-06
1.0281923e-07
5.5871643e-08
9.7124594e-06
9.6137967e-08
5.234137e-08
9.5731439e-06
9.0091187e-08
4.922435e-08
9.4420759e-06
8.4614454e-08
4.6453558e-08
9.3184531e-06
7.9648652e-08
4.3974125e-08
9.2015723e-06
7.5139701e-08
4.1741068e-08
9.0908166e-06
7.1038144e-08
3.9717567e-08
8.9856431e-06
6.7301146e-08
3.7872301e-08
8.8855707e-06
6.3894273e-08
3.6178125e-08
8.7901757e-06
6.078008e-08
3.4614928e-08
8.6990829e-06
5.7926183e-08
3.3166644e-08
8.611959e-06
5.5303731e-08
3.1820133e-08
8.5285072e-06
5.2887413e-08
3.056441e-08
8.4484618e-06
5.0655086e-08
2.9390274e-08
8.3715848e-06
4.8587046e-08
2.8290026e-08
8.2976614e-06
4.6666163e-08
2.7257211e-08
8.2264975e-06
4.4877478e-08
2.6286424e-08
8.1579202e-06
4.3208773e-08
2.5368525e-08
8.0917731e-06
4.1649054e-08
2.4498042e-08
8.0279107e-06
4.0186963e-08
2.3675378e-08
7.9662005e-06
3.8812694e-08
2.2897539e-08
7.9065219e-06
3.7518403e-08
2.2160234e-08
7.8487639e-06
3.6297866e-08
2.1460163e-08
7.7928241e-06
3.5145161e-08
2.0794589e-08
7.7386083e-06
3.4054667e-08
2.0161155e-08
7.6860293e-06
3.3021369e-08
1.9557695e-08
7.6350062e-06
3.2040793e-08
1.8982268e-08
7.5854641e-06
3.1109057e-08
1.8433094e-08
7.537333e-06
3.0222602e-08
1.7908476e-08
7.4905478e-06
2.9378239e-08
1.740699e-08
7.4450476e-06
2.8573002e-08
1.6927194e-08
7.4007755e-06
2.780422e-08
1.6467777e-08
7.3576783e-06
2.7069592e-08
1.6027622e-08
7.3157056e-06
2.6367015e-08
1.5605594e-08
7.2748103e-06
2.5694647e-08
1.5200673e-08
7.2349479e-06
2.505059e-08
1.4811818e-08
7.1960766e-06
2.4433121e-08
1.4438174e-08
7.158157e-06
2.3840695e-08
1.4078948e-08
7.1211518e-06
2.3271924e-08
1.3733291e-08
7.0850258e-06
2.2725506e-08
1.340053e-08
7.0497456e-06
2.220022e-08
1.307995e-08
7.0152798e-06
2.1694927e-08
1.27709e-08
6.9815985e-06
2.1208576e-08
1.2472758e-08
6.9486733e-06
2.0740247e-08
1.2184915e-08
6.9164775e-06
2.0288995e-08
1.1906782e-08
6.8849857e-06
1.9853959e-08
1.1637835e-08
6.8541739e-06
1.9434351e-08
1.1377448e-08
6.8240193e-06
1.9029467e-08
1.1125106e-08
6.7945006e-06
1.8638511e-08
1.0880257e-08
6.7655975e-06
1.8260761e-08
1.0642303e-08
6.7372912e-06
1.7895525e-08
1.0410749e-08
6.709564e-06
1.7542094e-08
1.0185091e-08
6.6823995e-06
1.7199627e-08
9.9648579e-09
6.6557824e-06
1.6867281e-08
9.7498293e-09
6.6296983e-06
1.6544126e-08
9.5400102e-09
6.6041331e-06
1.6229242e-08
9.3359993e-09
6.5790714e-06
1.5921975e-08
9.1396645e-09
6.554494e-06
1.5622318e-08
8.9550681e-09
6.5303708e-06
1.5332556e-08
8.7906524e-09
6.5066467e-06
1.506048e-08
8.663589e-09
6.4832094e-06
1.4827811e-08
8.6094785e-09
6.4598103e-06
1.4693073e-08
8.7059983e-09
6.4358387e-06
1.482641e-08
9.1451365e-09
6.4096303e-06
1.5741759e-08
1.0466771e-08
6.3782855e-06
1.8026588e-08
1.3318257e-08
3.2300187e-08
2.7923554e-08
0.00010646494
4.1872385e-06
6.4599816e-06
0.0001002019
5.695418e-06
6.6231353e-06
9.3659588e-05
5.7790389e-06
6.2744098e-06
8.7011589e-05
5.6514782e-06
6.0369387e-06
8.0422927e-05
5.3669119e-06
5.7173941e-06
7.4094022e-05
4.9022832e-06
5.3063862e-06
6.8167026e-05
4.3278136e-06
4.8516272e-06
6.2722565e-05
3.717891e-06
4.387032e-06
5.7799049e-05
3.1243144e-06
3.9337144e-06
5.3403345e-05
2.5820688e-06
3.5063329e-06
4.9517402e-05
2.1121062e-06
3.1138299e-06
4.6105482e-05
1.7220196e-06
2.7597474e-06
4.3121558e-05
1.4089354e-06
2.4437429e-06
4.0515558e-05
1.1637552e-06
2.163346e-06
3.8237948e-05
9.7485848e-07
1.9152336e-06
3.6242683e-05
8.3055974e-07
1.6959573e-06
3.4488759e-05
7.2043698e-07
1.5022849e-06
3.2940716e-05
6.3586296e-07
1.3313172e-06
3.1568463e-05
5.7005003e-07
1.1804931e-06
3.0346733e-05
5.1784895e-07
1.0475522e-06
2.9254398e-05
4.7545953e-07
9.3049031e-07
2.8273782e-05
4.4013956e-07
8.2752022e-07
2.7390054e-05
4.099489e-07
7.3704007e-07
2.6590699e-05
3.8353953e-07
6.5760859e-07
2.5865102e-05
3.5998885e-07
5.8793072e-07
2.5204198e-05
3.3867633e-07
5.268426e-07
2.4600205e-05
3.1918358e-07
4.7330347e-07
2.4046429e-05
3.0120188e-07
4.2639013e-07
2.3537073e-05
2.8455205e-07
3.8526712e-07
2.3067119e-05
2.6911097e-07
3.4918235e-07
2.2632208e-05
2.5478164e-07
3.1747785e-07
2.2228528e-05
2.4147382e-07
2.8959533e-07
2.1852744e-05
2.2911072e-07
2.6504125e-07
2.1501947e-05
2.1762894e-07
2.4337255e-07
2.1173591e-05
2.0696952e-07
2.2420573e-07
2.0865444e-05
1.9707566e-07
2.0720867e-07
2.0575549e-05
1.8789251e-07
1.9209397e-07
2.0302183e-05
1.7936721e-07
1.7861343e-07
2.0043829e-05
1.7144906e-07
1.665532e-07
1.979915e-05
1.6408984e-07
1.5572942e-07
1.956696e-05
1.5724382e-07
1.45984e-07
1.934621e-05
1.5086899e-07
1.3718217e-07
1.9135969e-05
1.4492655e-07
1.2920877e-07
1.8935407e-05
1.3937908e-07
1.2196305e-07
1.8743783e-05
1.3419228e-07
1.1535761e-07
1.8560435e-05
1.2933512e-07
1.0931729e-07
1.8384766e-05
1.2477907e-07
1.0377716e-07
1.8216241e-05
1.204985e-07
9.8681274e-08
1.8054377e-05
1.1647013e-07
9.3981305e-08
1.7898734e-05
1.1267293e-07
8.9635411e-08
1.7748917e-05
1.0908823e-07
8.5607008e-08
1.7604563e-05
1.0570006e-07
8.1862417e-08
1.7465345e-05
1.024934e-07
7.8373252e-08
1.7330962e-05
9.9453003e-08
7.5116976e-08
1.7201138e-05
9.6564423e-08
7.2072727e-08
1.7075619e-05
9.3816653e-08
6.9221136e-08
1.695417e-05
9.1201121e-08
6.6545124e-08
1.6836577e-05
8.8709103e-08
6.4029559e-08
1.6722638e-05
8.6331967e-08
6.1661062e-08
1.661217e-05
8.4061756e-08
5.9427691e-08
1.6505001e-05
8.1891536e-08
5.7318832e-08
1.640097e-05
7.9814939e-08
5.5324832e-08
1.6299929e-05
7.7826146e-08
5.3437127e-08
1.620174e-05
7.5919883e-08
5.1647915e-08
1.6106272e-05
7.4091028e-08
4.9950121e-08
1.6013404e-05
7.2334957e-08
4.8337402e-08
1.5923022e-05
7.0647713e-08
4.6803883e-08
1.5835019e-05
6.90257e-08
4.5344282e-08
1.5749294e-05
6.7465498e-08
4.3953694e-08
1.5665753e-05
6.5963769e-08
4.2627689e-08
1.5584307e-05
6.4517377e-08
4.1362168e-08
1.5504871e-05
6.3123403e-08
4.015334e-08
1.5427365e-05
6.1779287e-08
3.8997757e-08
1.5351716e-05
6.0482544e-08
3.789226e-08
1.5277852e-05
5.9230816e-08
3.6833861e-08
1.5205705e-05
5.8022012e-08
3.5819727e-08
1.5135212e-05
5.6853985e-08
3.484737e-08
1.5066313e-05
5.5725001e-08
3.3914356e-08
1.499895e-05
5.4633111e-08
3.3018428e-08
1.493307e-05
5.3576711e-08
3.2157448e-08
1.4868621e-05
5.2554182e-08
3.1329415e-08
1.4805554e-05
5.1563963e-08
3.0532418e-08
1.4743823e-05
5.0604475e-08
2.9764674e-08
1.4683386e-05
4.9674306e-08
2.9024349e-08
1.4624199e-05
4.8771834e-08
2.8309899e-08
1.4566226e-05
4.7895463e-08
2.7619579e-08
1.4509431e-05
4.7043504e-08
2.6951974e-08
1.4453778e-05
4.621411e-08
2.6305784e-08
1.4399237e-05
4.5405408e-08
2.5679876e-08
1.4345777e-05
4.4615727e-08
2.5073755e-08
1.4293367e-05
4.3844286e-08
2.4487705e-08
1.4241972e-05
4.3092893e-08
2.3923727e-08
1.4191548e-05
4.2369914e-08
2.3387147e-08
1.4142019e-05
4.1699338e-08
2.2889638e-08
1.4093249e-05
4.1141653e-08
2.2456627e-08
1.4044951e-05
4.0844634e-08
2.214656e-08
1.3996485e-05
4.1169177e-08
2.2123033e-08
1.3946229e-05
4.3012302e-08
2.2985382e-08
1.389015e-05
4.8540244e-08
2.5565811e-08
6.3281558e-08
5.0000856e-08
0.00010603565
2.7876425e-06
6.4750379e-06
0.00010074799
4.4145413e-06
6.5685292e-06
9.5493515e-05
4.8594028e-06
6.1741158e-06
9.0256432e-05
4.930369e-06
5.9581921e-06
8.5101366e-05
4.8311767e-06
5.6908011e-06
8.0102875e-05
4.5561761e-06
5.3445981e-06
7.5322251e-05
4.1469521e-06
4.9614853e-06
7.0803266e-05
3.6678926e-06
4.5689837e-06
6.6576264e-05
3.1701903e-06
4.1811254e-06
6.2660725e-05
2.6900109e-06
3.8075976e-06
5.9065443e-05
2.2519318e-06
3.4554566e-06
5.5788936e-05
1.8697304e-06
3.1287958e-06
5.2820978e-05
1.5477473e-06
2.8291458e-06
5.014479e-05
1.2836302e-06
2.5563139e-06
4.7739304e-05
1.07123e-06
2.3091141e-06
4.5581183e-05
9.0281505e-07
2.0858661e-06
4.3646423e-05
7.7048781e-07
1.884709e-06
4.1911533e-05
6.6697376e-07
1.7037793e-06
4.0354306e-05
5.8598198e-07
1.541295e-06
3.8954268e-05
5.2230223e-07
1.3955849e-06
3.769288e-05
4.7175602e-07
1.265091e-06
3.6553576e-05
4.3107981e-07
1.1483634e-06
3.552169e-05
3.9778203e-07
1.0440533e-06
3.4584322e-05
3.6999882e-07
9.5090832e-07
3.3730181e-05
3.4635981e-07
8.6777018e-07
3.2949411e-05
3.2587758e-07
7.9356871e-07
3.2233419e-05
3.0784049e-07
7.2733486e-07
3.1574711e-05
2.9172983e-07
6.6818104e-07
3.0966769e-05
2.7719266e-07
6.1530126e-07
3.0403928e-05
2.63981e-07
5.6797016e-07
2.9881258e-05
2.5190846e-07
5.2554314e-07
2.9394455e-05
2.4082714e-07
4.8745003e-07
2.8939761e-05
2.3062161e-07
4.5318327e-07
2.8513895e-05
2.212015e-07
4.2229385e-07
2.8113985e-05
2.1249196e-07
3.9438673e-07
2.7737518e-05
2.0442797e-07
3.6911491e-07
2.7382285e-05
1.9695193e-07
3.4617383e-07
2.7046344e-05
1.9001176e-07
3.2529677e-07
2.6727982e-05
1.8355995e-07
3.0625046e-07
2.6425689e-05
1.7755273e-07
2.8883088e-07
2.6138123e-05
1.7195004e-07
2.7285986e-07
2.5864094e-05
1.6671513e-07
2.5818183e-07
2.5602546e-05
1.6181455e-07
2.446609e-07
2.535253e-05
1.5721708e-07
2.3217764e-07
2.51132e-05
1.5289442e-07
2.2062726e-07
2.4883797e-05
1.4882096e-07
2.0991774e-07
2.4663634e-05
1.4497366e-07
1.999681e-07
2.4452094e-05
1.4133184e-07
1.9070706e-07
2.4248615e-05
1.3787698e-07
1.8207156e-07
2.405269e-05
1.3459269e-07
1.7400571e-07
2.3863854e-05
1.3146464e-07
1.6645988e-07
2.3681684e-05
1.2848057e-07
1.5938926e-07
2.3505794e-05
1.256292e-07
1.527541e-07
2.3335829e-05
1.2289869e-07
1.4651966e-07
2.3171462e-05
1.2027634e-07
1.406546e-07
2.3012394e-05
1.1775472e-07
1.3513022e-07
2.2858345e-05
1.153297e-07
1.2992042e-07
2.2709057e-05
1.1299538e-07
1.2500173e-07
2.2564291e-05
1.1074516e-07
1.2035286e-07
2.2423824e-05
1.0857347e-07
1.1595456e-07
2.2287451e-05
1.0647549e-07
1.1178923e-07
2.2154978e-05
1.0444699e-07
1.0784077e-07
2.2026226e-05
1.0248419e-07
1.0409458e-07
2.1901025e-05
1.0058348e-07
1.0053715e-07
2.1779218e-05
9.8741563e-08
9.7156152e-08
2.1660658e-05
9.6954911e-08
9.3940293e-08
2.1545205e-05
9.5221239e-08
9.0879048e-08
2.1432729e-05
9.3538829e-08
8.7962826e-08
2.1323107e-05
9.1905306e-08
8.5182585e-08
2.1216222e-05
9.0318511e-08
8.2530162e-08
2.1111965e-05
8.8776398e-08
7.99979e-08
2.1010233e-05
8.7277104e-08
7.7578625e-08
2.0910927e-05
8.5818958e-08
7.5265853e-08
2.0813956e-05
8.440033e-08
7.3053435e-08
2.0719232e-05
8.3019685e-08
7.0935661e-08
2.0626671e-05
8.1675621e-08
6.8907232e-08
2.0536195e-05
8.0366799e-08
6.6963156e-08
2.0447729e-05
7.9091936e-08
6.5098741e-08
2.0361203e-05
7.7849818e-08
6.3309795e-08
2.0276548e-05
7.6639209e-08
6.1592034e-08
2.0193702e-05
7.5459006e-08
5.9941752e-08
2.0112602e-05
7.4307954e-08
5.8355244e-08
2.0033193e-05
7.3184895e-08
5.6829058e-08
1.9955419e-05
7.2088596e-08
5.5359947e-08
1.9879228e-05
7.1017621e-08
5.3944837e-08
1.9804572e-05
6.997047e-08
5.258074e-08
1.9731406e-05
6.8945277e-08
5.1264815e-08
1.9659685e-05
6.7940138e-08
4.9994402e-08
1.9589371e-05
6.6953041e-08
4.876705e-08
1.9520423e-05
6.5982353e-08
4.7580543e-08
1.9452807e-05
6.5028021e-08
4.6433094e-08
1.9386482e-05
6.4094118e-08
4.5323724e-08
1.9321404e-05
6.31947e-08
4.4253081e-08
1.9257511e-05
6.2366358e-08
4.3225233e-08
1.9194705e-05
6.1695188e-08
4.2253138e-08
1.9132798e-05
6.1374065e-08
4.1377405e-08
1.9071394e-05
6.1822427e-08
4.0750634e-08
1.9009424e-05
6.3924751e-08
4.1057617e-08
1.8944661e-05
6.9304682e-08
4.3998832e-08
7.9170951e-08
7.4661529e-08
0.0001054937
1.9169871e-06
6.4880406e-06
0.00010005365
3.2729596e-06
6.5816334e-06
9.4926077e-05
3.8288995e-06
6.1580776e-06
8.9946373e-05
3.9838109e-06
5.9262629e-06
8.5163276e-05
3.9595077e-06
5.6547657e-06
8.0619137e-05
3.7899368e-06
5.3103784e-06
7.6329462e-05
3.5015547e-06
4.9350725e-06
7.230016e-05
3.1412013e-06
4.5559928e-06
6.8534206e-05
2.7514802e-06
4.1846641e-06
6.5032983e-05
2.3633493e-06
3.8278852e-06
6.1795789e-05
1.9984143e-06
3.490711e-06
5.8818843e-05
1.6703759e-06
3.176301e-06
5.6094718e-05
1.3858295e-06
2.886043e-06
5.3612488e-05
1.1457945e-06
2.6200649e-06
5.1358373e-05
9.4764117e-07
2.3777043e-06
4.9316593e-05
7.8676782e-07
2.1578272e-06
4.7470246e-05
6.5779545e-07
1.9590391e-06
4.5802069e-05
5.5532539e-07
1.7798252e-06
4.4295042e-05
4.7437114e-07
1.6186378e-06
4.293283e-05
4.1056667e-07
1.473948e-06
4.1700078e-05
3.6023235e-07
1.3442759e-06
4.0582591e-05
3.2035743e-07
1.2282094e-06
3.956742e-05
2.8853737e-07
1.1244154e-06
3.8642881e-05
2.6289063e-07
1.0316468e-06
3.7798527e-05
2.4196986e-07
9.4874403e-07
3.7025076e-05
2.2467704e-07
8.7465171e-07
3.6314324e-05
2.1018901e-07
8.0840413e-07
3.5659057e-05
1.9788604e-07
7.4911041e-07
3.5052961e-05
1.8731586e-07
6.9597283e-07
3.449052e-05
1.7814872e-07
6.4827378e-07
3.3966922e-05
1.7013171e-07
6.0537438e-07
3.3477973e-05
1.6306727e-07
5.6670868e-07
3.3020016e-05
1.5680295e-07
5.317754e-07
3.2589865e-05
1.5122052e-07
5.0013242e-07
3.218474e-05
1.4622562e-07
4.7139139e-07
3.1802215e-05
1.4174072e-07
4.4521234e-07
3.1440168e-05
1.3770096e-07
4.2129809e-07
3.1096739e-05
1.3405098e-07
3.9938924e-07
3.0770297e-05
1.3074296e-07
3.7925955e-07
3.0459402e-05
1.2773517e-07
3.6071194e-07
3.0162787e-05
1.2499088e-07
3.4357476e-07
2.9879325e-05
1.2247783e-07
3.2769847e-07
2.960802e-05
1.201673e-07
3.1295269e-07
2.934798e-05
1.180338e-07
2.9922351e-07
2.9098408e-05
1.1605463e-07
2.8641138e-07
2.885859e-05
1.1420981e-07
2.7442905e-07
2.8627882e-05
1.1248191e-07
2.632e-07
2.8405701e-05
1.108556e-07
2.5265685e-07
2.819152e-05
1.0931757e-07
2.4274023e-07
2.7984859e-05
1.0785646e-07
2.3339757e-07
2.7785279e-05
1.0646277e-07
2.2458211e-07
2.7592378e-05
1.0512871e-07
2.1625216e-07
2.740579e-05
1.0384733e-07
2.0837035e-07
2.7225174e-05
1.0261119e-07
2.0090358e-07
2.705022e-05
1.0140743e-07
1.9382256e-07
2.6880641e-05
1.0023383e-07
1.871004e-07
2.6716166e-05
9.9092345e-08
1.8071224e-07
2.6556546e-05
9.7979978e-08
1.7463557e-07
2.6401548e-05
9.6892515e-08
1.6885012e-07
2.6250957e-05
9.5827079e-08
1.6333741e-07
2.610457e-05
9.4781705e-08
1.5808043e-07
2.5962199e-05
9.3754717e-08
1.5306361e-07
2.5823666e-05
9.2744873e-08
1.482726e-07
2.5688804e-05
9.1750967e-08
1.4369414e-07
2.5557458e-05
9.077174e-08
1.3931599e-07
2.5429481e-05
8.9805189e-08
1.3512695e-07
2.5304734e-05
8.8851464e-08
1.3111645e-07
2.5183087e-05
8.7911224e-08
1.2727467e-07
2.5064416e-05
8.6983936e-08
1.235924e-07
2.4948604e-05
8.6068917e-08
1.2006118e-07
2.4835542e-05
8.5165796e-08
1.1667303e-07
2.4725124e-05
8.4274333e-08
1.1342048e-07
2.4617252e-05
8.3394275e-08
1.1029656e-07
2.4511832e-05
8.2525468e-08
1.0729475e-07
2.4408775e-05
8.1667785e-08
1.0440897e-07
2.4307997e-05
8.0820993e-08
1.0163344e-07
2.4209416e-05
7.9985025e-08
9.8962645e-08
2.4112956e-05
7.9159742e-08
9.6391538e-08
2.4018546e-05
7.8345022e-08
9.3915311e-08
2.3926115e-05
7.7540683e-08
9.1529297e-08
2.3835598e-05
7.6746543e-08
8.9229256e-08
2.3746933e-05
7.5962298e-08
8.7011047e-08
2.366006e-05
7.5187606e-08
8.4870729e-08
2.3574922e-05
7.4421972e-08
8.280455e-08
2.3491466e-05
7.3664639e-08
8.0808966e-08
2.3409641e-05
7.2914634e-08
7.8880353e-08
2.33294e-05
7.2170713e-08
7.7015491e-08
2.3250698e-05
7.1431336e-08
7.5211038e-08
2.3173493e-05
7.069493e-08
7.3463653e-08
2.3097745e-05
6.9960255e-08
7.177007e-08
2.3023418e-05
6.9227985e-08
7.0127026e-08
2.2950477e-05
6.8503482e-08
6.8531179e-08
2.2878889e-05
6.7802871e-08
6.6979694e-08
2.2808619e-05
6.7165047e-08
6.5471568e-08
2.2739625e-05
6.6675247e-08
6.4013347e-08
2.267185e-05
6.6507077e-08
6.2642303e-08
2.2605149e-05
6.6990715e-08
6.1532358e-08
2.2538888e-05
6.8686013e-08
6.1499913e-08
2.2471121e-05
7.222694e-08
6.4845135e-08
7.6722818e-08
9.8461318e-08
0.0001051979
1.3340884e-06
6.4961221e-06
9.9496561e-05
2.3731022e-06
6.6011947e-06
9.4262459e-05
2.9019224e-06
6.1610799e-06
8.9251186e-05
3.0856642e-06
5.9094196e-06
8.4493497e-05
3.0947347e-06
5.6224614e-06
8.0033635e-05
2.9846657e-06
5.265134e-06
7.5876907e-05
2.7790155e-06
4.8792667e-06
7.2014635e-05
2.5106844e-06
4.4927895e-06
6.8436293e-05
2.2128728e-06
4.1169489e-06
6.5131387e-05
1.9107258e-06
3.7575291e-06
6.208941e-05
1.621732e-06
3.4186596e-06
5.9299432e-05
1.3573877e-06
3.1029661e-06
5.6749589e-05
1.1240344e-06
2.8116386e-06
5.4426788e-05
9.2377946e-07
2.5448158e-06
5.2316754e-05
7.5572795e-07
2.3019466e-06
5.0404313e-05
6.1717853e-07
2.0820302e-06
4.8673788e-05
5.045435e-07
1.8837772e-06
4.7109414e-05
4.1397182e-07
1.7057274e-06
4.5695713e-05
3.417365e-07
1.5463363e-06
4.4417792e-05
2.8445147e-07
1.4040359e-06
4.3261575e-05
2.3917112e-07
1.2772781e-06
4.2213953e-05
2.0341503e-07
1.1645652e-06
4.1262871e-05
1.7514744e-07
1.0644719e-06
4.039737e-05
1.5273233e-07
9.75659e-07
3.9607583e-05
1.3487527e-07
8.9688142e-07
3.8884688e-05
1.2055566e-07
8.2701638e-07
3.8220848e-05
1.0901092e-07
7.6501857e-07
3.7609155e-05
9.963385e-08
7.0994489e-07
3.7043542e-05
9.1977451e-08
6.6095089e-07
3.6518702e-05
8.5705842e-08
6.172829e-07
3.6030009e-05
8.0552367e-08
5.7827308e-07
3.5573433e-05
7.6308242e-08
5.4333413e-07
3.5145475e-05
7.2811251e-08
5.1195028e-07
3.4743091e-05
6.9934115e-08
4.8367022e-07
3.4363641e-05
6.7575448e-08
4.5810067e-07
3.4004828e-05
6.5652924e-08
4.3489996e-07
3.3664659e-05
6.4098599e-08
4.1377209e-07
3.3341393e-05
6.2855944e-08
3.9446094e-07
3.3033513e-05
6.1877027e-08
3.7674526e-07
3.2739693e-05
6.1121097e-08
3.6043425e-07
3.2458768e-05
6.0553061e-08
3.4536328e-07
3.2189712e-05
6.014267e-08
3.3139053e-07
3.1931622e-05
5.9863631e-08
3.1839376e-07
3.1683696e-05
5.9693112e-08
3.0626734e-07
3.1445219e-05
5.9611181e-08
2.9492011e-07
3.1215555e-05
5.96006e-08
2.8427316e-07
3.0994132e-05
5.9646546e-08
2.7425808e-07
3.0780436e-05
5.9736191e-08
2.6481538e-07
3.0574002e-05
5.9858686e-08
2.5589335e-07
3.0374407e-05
6.0004933e-08
2.4744661e-07
3.0181267e-05
6.0167633e-08
2.394355e-07
2.9994229e-05
6.034126e-08
2.3182489e-07
2.9812971e-05
6.0521804e-08
2.2458377e-07
2.9637193e-05
6.0704478e-08
2.1768454e-07
2.9466629e-05
6.0867301e-08
2.1110456e-07
2.9301024e-05
6.1016979e-08
2.0482181e-07
2.914014e-05
6.116085e-08
1.988157e-07
2.8983756e-05
6.1294942e-08
1.9306836e-07
2.8831669e-05
6.1415471e-08
1.8756388e-07
2.8683688e-05
6.1520965e-08
1.8228765e-07
2.8539633e-05
6.1610527e-08
1.7722635e-07
2.8399336e-05
6.1683793e-08
1.7236783e-07
2.8262639e-05
6.1740476e-08
1.6770087e-07
2.8129394e-05
6.1780667e-08
1.6321523e-07
2.7999461e-05
6.1803886e-08
1.5890122e-07
2.7872709e-05
6.1807413e-08
1.5475038e-07
2.7749012e-05
6.1793579e-08
1.5075442e-07
2.7628253e-05
6.1764831e-08
1.4690556e-07
2.7510319e-05
6.1720997e-08
1.4319659e-07
2.7395105e-05
6.1662095e-08
1.3962083e-07
2.728251e-05
6.1588601e-08
1.3617203e-07
2.7172439e-05
6.1501067e-08
1.3284424e-07
2.7064802e-05
6.1399988e-08
1.2963195e-07
2.6959511e-05
6.1285945e-08
1.2652989e-07
2.6856486e-05
6.1159552e-08
1.2353325e-07
2.6755649e-05
6.102132e-08
1.2063732e-07
2.6656924e-05
6.0871889e-08
1.1783766e-07
2.6560242e-05
6.0711716e-08
1.1513015e-07
2.6465535e-05
6.0541388e-08
1.1251076e-07
2.6372738e-05
6.0361333e-08
1.0997579e-07
2.6281791e-05
6.0171963e-08
1.0752157e-07
2.6192636e-05
5.9973544e-08
1.0514471e-07
2.6105215e-05
5.9766324e-08
1.0284182e-07
2.6019477e-05
5.955025e-08
1.0060974e-07
2.5935371e-05
5.9325168e-08
9.8445289e-08
2.585285e-05
5.9090512e-08
9.6345386e-08
2.5771868e-05
5.8845516e-08
9.4306937e-08
2.5692384e-05
5.8589036e-08
9.2326753e-08
2.5614357e-05
5.8319824e-08
9.0401448e-08
2.5537753e-05
5.8037098e-08
8.8527319e-08
2.5462539e-05
5.7741656e-08
8.6700224e-08
2.5388689e-05
5.7438425e-08
8.4915169e-08
2.5316184e-05
5.7141387e-08
8.3166612e-08
2.5245017e-05
5.6882547e-08
8.1449621e-08
2.51752e-05
5.6726048e-08
7.9765819e-08
2.510677e-05
5.6787901e-08
7.81492e-08
2.5039729e-05
5.7251592e-08
7.678096e-08
2.4973573e-05
5.8330927e-08
7.6510226e-08
2.4906079e-05
5.9989497e-08
7.9732167e-08
6.0715024e-08
1.1287822e-07
0.00010503672
9.0789374e-07
6.5005614e-06
9.9140653e-05
1.6524914e-06
6.6166802e-06
9.3788329e-05
2.0825242e-06
6.1717217e-06
8.8708526e-05
2.2549373e-06
5.91053e-06
8.3909682e-05
2.278404e-06
5.6151748e-06
7.9437109e-05
2.2074821e-06
5.2497564e-06
7.5296201e-05
2.0645348e-06
4.8553893e-06
7.1474034e-05
1.8722543e-06
4.4605969e-06
6.7955013e-05
1.6547667e-06
4.0771269e-06
6.4723621e-05
1.4313505e-06
3.7107669e-06
6.1764423e-05
1.2154297e-06
3.3655007e-06
5.9062056e-05
1.015864e-06
3.0438911e-06
5.6601108e-05
8.3782741e-07
2.7471548e-06
5.4365944e-05
6.8344645e-07
2.475497e-06
5.2340648e-05
5.5258526e-07
2.2284383e-06
5.0509125e-05
4.4366546e-07
2.0050361e-06
4.8855299e-05
3.5433456e-07
1.8040352e-06
4.7363353e-05
2.819359e-07
1.6239821e-06
4.6017963e-05
2.2381347e-07
1.4633127e-06
4.4804502e-05
1.7749383e-07
1.3204181e-06
4.3709199e-05
1.407809e-07
1.1936935e-06
4.2719248e-05
1.1179155e-07
1.081575e-06
4.1822875e-05
8.8954507e-08
9.8256583e-07
4.1009364e-05
7.0987986e-08
8.9525472e-07
4.0269054e-05
5.6861803e-08
8.1832381e-07
3.9593306e-05
4.5719121e-08
7.5058473e-07
3.8974405e-05
3.6977839e-08
6.9093436e-07
3.8405585e-05
3.006739e-08
6.3838632e-07
3.7880869e-05
2.4650866e-08
5.920424e-07
3.7395029e-05
2.0439976e-08
5.5110605e-07
3.6943514e-05
1.7190258e-08
5.1487716e-07
3.6522366e-05
1.4716723e-08
4.8273958e-07
3.6128148e-05
1.287477e-08
4.5415391e-07
3.5757883e-05
1.1549909e-08
4.2864945e-07
3.5408991e-05
1.0650774e-08
4.0581706e-07
3.5079238e-05
1.0103619e-08
3.8530227e-07
3.4766689e-05
9.848256e-09
3.6679879e-07
3.4469668e-05
9.8351176e-09
3.5004232e-07
3.4186716e-05
1.0022911e-08
3.348055e-07
3.3916567e-05
1.0377033e-08
3.2089287e-07
3.3658116e-05
1.0868078e-08
3.0813661e-07
3.3410395e-05
1.1470972e-08
2.9639285e-07
3.3172556e-05
1.2164229e-08
2.8553826e-07
3.2943852e-05
1.2929293e-08
2.754672e-07
3.2723625e-05
1.3750153e-08
2.6608895e-07
3.2511286e-05
1.4613095e-08
2.5732573e-07
3.2306316e-05
1.5506264e-08
2.4911069e-07
3.2108246e-05
1.6419609e-08
2.4138623e-07
3.1916658e-05
1.734464e-08
2.3410271e-07
3.1731171e-05
1.8274323e-08
2.2721714e-07
3.1551444e-05
1.9203183e-08
2.2069218e-07
3.1377162e-05
2.0127746e-08
2.144951e-07
3.1208038e-05
2.1048657e-08
2.085968e-07
3.1043799e-05
2.1972785e-08
2.0297054e-07
3.0884232e-05
2.282787e-08
1.9760738e-07
3.0729103e-05
2.3663002e-08
1.9248229e-07
3.05782e-05
2.4490028e-08
1.8757383e-07
3.0431331e-05
2.5296288e-08
1.8286762e-07
3.0288318e-05
2.6077995e-08
1.7835077e-07
3.0148994e-05
2.6834315e-08
1.7401106e-07
3.0013202e-05
2.756469e-08
1.6983755e-07
2.9880797e-05
2.8268987e-08
1.6582024e-07
2.975164e-05
2.8947465e-08
1.6195016e-07
2.9625601e-05
2.9600768e-08
1.5821899e-07
2.9502557e-05
3.0228554e-08
1.5461921e-07
2.9382396e-05
3.0823607e-08
1.5114466e-07
2.9265007e-05
3.1393114e-08
1.4778878e-07
2.9150287e-05
3.1939575e-08
1.4454537e-07
2.9038137e-05
3.2461883e-08
1.41409e-07
2.8928465e-05
3.2960067e-08
1.383746e-07
2.8821181e-05
3.3434708e-08
1.3543752e-07
2.8716203e-05
3.3886337e-08
1.325933e-07
2.8613449e-05
3.4315555e-08
1.2983787e-07
2.8512845e-05
3.4722899e-08
1.2716734e-07
2.8414317e-05
3.5108983e-08
1.2457814e-07
2.8317797e-05
3.5474441e-08
1.220668e-07
2.8223219e-05
3.5819931e-08
1.1963008e-07
2.813052e-05
3.6145907e-08
1.1726492e-07
2.803964e-05
3.6453057e-08
1.149684e-07
2.7950522e-05
3.6741891e-08
1.1273774e-07
2.7863111e-05
3.7012794e-08
1.1057025e-07
2.7777354e-05
3.7266234e-08
1.0846342e-07
2.7693204e-05
3.7502463e-08
1.0641475e-07
2.761061e-05
3.7721617e-08
1.0442178e-07
2.752953e-05
3.7923558e-08
1.0248202e-07
2.744992e-05
3.8107979e-08
1.0059306e-07
2.7371738e-05
3.8274285e-08
9.8752303e-08
2.7294949e-05
3.8421568e-08
9.6956903e-08
2.7219516e-05
3.8548751e-08
9.5203651e-08
2.714541e-05
3.8655147e-08
9.3488643e-08
2.7072603e-05
3.8741203e-08
9.1806956e-08
2.7001079e-05
3.8810303e-08
9.0152333e-08
2.6930832e-05
3.8872137e-08
8.8516574e-08
2.6861877e-05
3.8947405e-08
8.6890542e-08
2.679426e-05
3.9073526e-08
8.5269179e-08
2.6728065e-05
3.9306977e-08
8.3675957e-08
2.6663337e-05
3.9708364e-08
8.2271183e-08
2.659956e-05
4.0272025e-08
8.1836183e-08
2.6534295e-05
4.0698059e-08
8.455576e-08
3.9620858e-08
1.1507131e-07
0.00010494757
5.6811083e-07
6.5033077e-06
9.8925416e-05
1.0462983e-06
6.6283517e-06
9.3480449e-05
1.3439845e-06
6.1835065e-06
8.8341777e-05
1.4751324e-06
5.9184763e-06
8.3502084e-05
1.4993911e-06
5.6187065e-06
7.9004057e-05
1.4572411e-06
5.2482679e-06
7.4853978e-05
1.3667382e-06
4.8478757e-06
7.1037378e-05
1.2423973e-06
4.4464569e-06
6.7536063e-05
1.0997693e-06
4.0563128e-06
6.4331998e-05
9.5192362e-07
3.683491e-06
6.1407318e-05
8.0805758e-07
3.3320524e-06
5.8744339e-05
6.7422203e-07
3.0046209e-06
5.6325632e-05
5.5404397e-07
2.7024907e-06
5.4133973e-05
4.4916746e-07
2.4259383e-06
5.2152298e-05
3.5972398e-07
2.174536e-06
5.0363747e-05
2.8484507e-07
1.9473718e-06
4.875178e-05
2.2310002e-07
1.7432015e-06
4.7300339e-05
1.7281167e-07
1.5605647e-06
4.5994012e-05
1.3226571e-07
1.3978747e-06
4.4818177e-05
9.9839994e-08
1.2534891e-06
4.3759121e-05
7.4075593e-08
1.1257614e-06
4.2804123e-05
5.3707631e-08
1.0130814e-06
4.1941503e-05
3.7671214e-08
9.1390377e-07
4.1160627e-05
2.509644e-08
8.2676732e-07
4.0451891e-05
1.5294195e-08
7.5030389e-07
3.980679e-05
7.5282131e-09
6.8329175e-07
3.9217543e-05
1.6727627e-09
6.2455201e-07
3.8677513e-05
-3.0330905e-09
5.7313082e-07
3.8180739e-05
-6.6486782e-09
5.2807354e-07
3.7722004e-05
-9.3594725e-09
4.8853453e-07
3.7296777e-05
-1.1371792e-08
4.5378929e-07
3.6901112e-05
-1.2818234e-08
4.2319916e-07
3.6531588e-05
-1.3805254e-08
3.9620483e-07
3.6185236e-05
-1.4417451e-08
3.7231877e-07
3.5859491e-05
-1.4721876e-08
3.5111777e-07
3.5552132e-05
-1.4772667e-08
3.3223578e-07
3.5261237e-05
-1.4613928e-08
3.1535726e-07
3.4985143e-05
-1.4282193e-08
3.0021087e-07
3.472241e-05
-1.3807708e-08
2.8656373e-07
3.4471787e-05
-1.3215879e-08
2.742163e-07
3.4232185e-05
-1.2528164e-08
2.629977e-07
3.4002657e-05
-1.1762793e-08
2.5276174e-07
3.3782373e-05
-1.0935233e-08
2.4338336e-07
3.3570606e-05
-1.005878e-08
2.3475557e-07
3.3366714e-05
-9.1447504e-09
2.2678674e-07
3.3170131e-05
-8.2027973e-09
2.1939834e-07
3.2980356e-05
-7.2412332e-09
2.12523e-07
3.279694e-05
-6.2668809e-09
2.0610282e-07
3.2619482e-05
-5.2855537e-09
2.0008783e-07
3.2447623e-05
-4.3018156e-09
1.9443479e-07
3.228104e-05
-3.3190377e-09
1.891059e-07
3.2119438e-05
-2.3382964e-09
1.8406734e-07
3.1962554e-05
-1.3530289e-09
1.7928644e-07
3.1810075e-05
-2.7633247e-10
1.7472763e-07
3.1661878e-05
5.8583978e-10
1.7043905e-07
3.1517732e-05
1.4356024e-09
1.6637292e-07
3.1377429e-05
2.3038251e-09
1.624896e-07
3.1240792e-05
3.1586478e-09
1.5877486e-07
3.1107656e-05
3.9969896e-09
1.5521719e-07
3.0977867e-05
4.8171587e-09
1.5180549e-07
3.0851284e-05
5.6180141e-09
1.4852969e-07
3.0727773e-05
6.3990447e-09
1.4538077e-07
3.0607209e-05
7.1609572e-09
1.4235053e-07
3.0489473e-05
7.9059445e-09
1.3943122e-07
3.037445e-05
8.6357441e-09
1.3661579e-07
3.0262049e-05
9.3206442e-09
1.3390395e-07
3.0152163e-05
9.9938144e-09
1.3128567e-07
3.0044697e-05
1.0650368e-08
1.2875511e-07
2.9939564e-05
1.1286734e-08
1.2630827e-07
2.983668e-05
1.1903201e-08
1.2394088e-07
2.9735965e-05
1.2500173e-08
1.2164887e-07
2.9637345e-05
1.3077881e-08
1.1942847e-07
2.9540748e-05
1.3636741e-08
1.1727619e-07
2.9446105e-05
1.4177048e-08
1.1518882e-07
2.9353352e-05
1.469919e-08
1.1316341e-07
2.9262425e-05
1.520354e-08
1.1119705e-07
2.9173268e-05
1.5690493e-08
1.092871e-07
2.9085822e-05
1.6160386e-08
1.0743108e-07
2.9000035e-05
1.6613585e-08
1.0562666e-07
2.8915855e-05
1.7050382e-08
1.0387155e-07
2.8833233e-05
1.7471078e-08
1.0216361e-07
2.8752123e-05
1.7875929e-08
1.0050082e-07
2.8672479e-05
1.8265088e-08
9.8881094e-08
2.8594259e-05
1.8638562e-08
9.7302498e-08
2.8517424e-05
1.8996209e-08
9.5762969e-08
2.8441934e-05
1.933779e-08
9.426035e-08
2.8367753e-05
1.9662804e-08
9.2792353e-08
2.8294848e-05
1.9970476e-08
9.1356241e-08
2.8223187e-05
2.0260014e-08
8.9948876e-08
2.8152746e-05
2.0530697e-08
8.8565933e-08
2.8083503e-05
2.078258e-08
8.7201793e-08
2.8015447e-05
2.1017529e-08
8.5848693e-08
2.7948582e-05
2.124076e-08
8.4495858e-08
2.7882937e-05
2.146272e-08
8.3129517e-08
2.7818574e-05
2.170002e-08
8.1736525e-08
2.7755588e-05
2.1969288e-08
8.0324363e-08
2.7694014e-05
2.2266175e-08
7.9016077e-08
2.7633299e-05
2.250629e-08
7.8480648e-08
2.7571004e-05
2.2393415e-08
8.0599439e-08
2.09931e-08
1.0779946e-07
0.00010489986
2.7443378e-07
6.5049155e-06
9.8802772e-05
5.0716632e-07
6.6362235e-06
9.329591e-05
6.5854977e-07
6.1922972e-06
8.8116302e-05
7.2902548e-07
5.9257148e-06
8.3248198e-05