/*--------------------------------*- C++ -*----------------------------------*\
  =========                 |
  \\      /  F ield         | OpenFOAM: The Open Source CFD Toolbox
   \\    /   O peration     | Website:  https://openfoam.org
    \\  /    A nd           | Version:  7
     \\/     M anipulation  |
\*---------------------------------------------------------------------------*/
FoamFile
{
    version     2.0;
    format      ascii;
    class       volVectorField;
    location    "800/water";
    object      U;
}
// * * * * * * * * * * * * * * * * * * * * * * * * * * * * * * * * * * * * * //

dimensions      [0 1 -1 0 0 0 0];

internalField   nonuniform List<vector> 
54000
(
(0.0090020934 0.00020305973 0.00020444027)
(0.0083186447 0.00023622738 0.00023904411)
(0.0073695241 0.00021363852 0.00021763527)
(0.0063566114 0.00018488016 0.00018965819)
(0.0054486673 0.00015530836 0.00016048633)
(0.0046741594 0.00012529952 0.00013052937)
(0.0040193038 9.7052611e-05 0.00010203017)
(0.0034740067 7.2579e-05 7.7073287e-05)
(0.0030302461 5.2876127e-05 5.6738328e-05)
(0.0026757323 3.806815e-05 4.1216512e-05)
(0.0023947254 2.7637703e-05 3.003714e-05)
(0.0021713898 2.0689033e-05 2.2336509e-05)
(0.0019919695 1.623616e-05 1.7152703e-05)
(0.0018455015 1.3416236e-05 1.3643172e-05)
(0.0017237326 1.1582488e-05 1.1179122e-05)
(0.0016206928 1.0304891e-05 9.345582e-06)
(0.0015321593 9.3257909e-06 7.8957162e-06)
(0.0014551546 8.5052958e-06 6.6953109e-06)
(0.0013875459 7.7746329e-06 5.6760577e-06)
(0.0013277612 7.1034279e-06 4.8034862e-06)
(0.001274601 6.4798501e-06 4.0581563e-06)
(0.0012271179 5.8999461e-06 3.4261584e-06)
(0.0011845424 5.3625303e-06 2.8950717e-06)
(0.001146235 4.8670207e-06 2.4526299e-06)
(0.0011116558 4.4125995e-06 2.0869765e-06)
(0.0010803434 3.9980131e-06 1.7867452e-06)
(0.0010519002 3.6214597e-06 1.5416123e-06)
(0.0010259819 3.2805941e-06 1.3421853e-06)
(0.001002289 2.9733952e-06 1.1797314e-06)
(0.00098056199 2.6979485e-06 1.04632e-06)
(0.00096057572 2.4519211e-06 9.3658899e-07)
(0.00094213242 2.2325661e-06 8.4693405e-07)
(0.00092505792 2.0373866e-06 7.7316596e-07)
(0.00090920047 1.8640891e-06 7.1184202e-07)
(0.00089442818 1.7104625e-06 6.6046724e-07)
(0.0008806259 1.5743825e-06 6.1707293e-07)
(0.00086769295 1.4538614e-06 5.800534e-07)
(0.00085554128 1.3470712e-06 5.4811496e-07)
(0.00084409387 1.2523497e-06 5.2023908e-07)
(0.00083328322 1.1681988e-06 4.9562834e-07)
(0.00082305015 1.0932615e-06 4.7365328e-07)
(0.00081334267 1.0262305e-06 4.5378287e-07)
(0.00080411486 9.6585935e-07 4.3554425e-07)
(0.00079532615 9.113117e-07 4.1865111e-07)
(0.0007869407 8.6191735e-07 4.0290722e-07)
(0.00077892675 8.1708338e-07 3.8816808e-07)
(0.00077125603 7.7627761e-07 3.7432209e-07)
(0.0007639033 7.3902609e-07 3.6127609e-07)
(0.00075684598 7.0491468e-07 3.4896303e-07)
(0.00075006373 6.7357546e-07 3.3733162e-07)
(0.00074353822 6.446933e-07 3.2633691e-07)
(0.00073725294 6.180257e-07 3.1581807e-07)
(0.00073119314 5.933475e-07 3.0574393e-07)
(0.00072534528 5.7041951e-07 2.9621128e-07)
(0.00071969687 5.4902509e-07 2.8716642e-07)
(0.00071423653 5.2901374e-07 2.7854396e-07)
(0.00070895386 5.1027346e-07 2.7031206e-07)
(0.00070383928 4.926869e-07 2.6244798e-07)
(0.00069888397 4.7614434e-07 2.5493251e-07)
(0.00069407976 4.6054896e-07 2.4774403e-07)
(0.00068941911 4.4582094e-07 2.4086432e-07)
(0.00068489502 4.3188549e-07 2.3427645e-07)
(0.00068050098 4.1867938e-07 2.2796502e-07)
(0.00067623091 4.0614679e-07 2.2191237e-07)
(0.00067207915 3.9423494e-07 2.1610427e-07)
(0.00066804042 3.8289764e-07 2.1053087e-07)
(0.00066410976 3.720941e-07 2.051781e-07)
(0.00066028251 3.6179385e-07 2.000325e-07)
(0.0006565543 3.5196289e-07 1.9508344e-07)
(0.00065292099 3.4256997e-07 1.9031735e-07)
(0.00064937872 3.3358676e-07 1.8572899e-07)
(0.00064592384 3.2498793e-07 1.8130593e-07)
(0.00064255289 3.1675204e-07 1.7704074e-07)
(0.00063926261 3.0885661e-07 1.7292562e-07)
(0.00063604992 3.0128295e-07 1.6895155e-07)
(0.00063291192 2.9401291e-07 1.6511142e-07)
(0.00062984583 2.8703135e-07 1.6139741e-07)
(0.00062684904 2.803217e-07 1.5780286e-07)
(0.00062391907 2.7387113e-07 1.5432126e-07)
(0.00062105358 2.6766664e-07 1.5094246e-07)
(0.00061825035 2.6169446e-07 1.4766078e-07)
(0.00061550727 2.5594446e-07 1.4446987e-07)
(0.00061282235 2.5040684e-07 1.4136001e-07)
(0.00061019373 2.4506884e-07 1.3832447e-07)
(0.00060761965 2.3991993e-07 1.3535649e-07)
(0.00060509846 2.3494589e-07 1.3245006e-07)
(0.00060262863 2.3013519e-07 1.2959922e-07)
(0.00060020873 2.2546973e-07 1.2680525e-07)
(0.00059783744 2.2093202e-07 1.2407545e-07)
(0.00059551348 2.1649935e-07 1.2143407e-07)
(0.00059323555 2.1214796e-07 1.189293e-07)
(0.00059100214 2.0787213e-07 1.1666123e-07)
(0.00058881114 2.0368998e-07 1.1482999e-07)
(0.00058665898 1.9973138e-07 1.1382074e-07)
(0.0005845387 1.9638422e-07 1.1441144e-07)
(0.00058243501 1.9487257e-07 1.1837293e-07)
(0.00058031396 1.9977495e-07 1.3094379e-07)
(0.0005781161 2.225841e-07 1.6397649e-07)
(0.00057566369 1.9706959e-07 1.5080593e-07)
(0.00056906201 7.8896443e-07 7.532251e-07)
(0.0095316863 0.0003313754 0.00022336697)
(0.0092716504 0.00041105942 0.00027052342)
(0.0087756651 0.00040317187 0.00026060063)
(0.0081527518 0.00038218754 0.00024252081)
(0.0075302151 0.00035309574 0.00022101124)
(0.0069425889 0.00031541063 0.00019648834)
(0.006391209 0.00027309198 0.00017102969)
(0.0058791845 0.00023030694 0.00014652546)
(0.0054120202 0.00019001855 0.00012410997)
(0.0049926512 0.00015423459 0.00010436627)
(0.004620592 0.00012408347 8.7479017e-05)
(0.0042931332 9.9809402e-05 7.3327496e-05)
(0.0040063965 8.0956423e-05 6.1601504e-05)
(0.0037559538 6.6672209e-05 5.1918794e-05)
(0.0035372541 5.5985799e-05 4.3907444e-05)
(0.003345947 4.7992055e-05 3.7246645e-05)
(0.0031780884 4.194171e-05 3.167753e-05)
(0.0030302311 3.7262445e-05 2.6997921e-05)
(0.0028994324 3.3540996e-05 2.3051138e-05)
(0.0027832152 3.0490243e-05 1.9714593e-05)
(0.0026795075 2.7915735e-05 1.6890543e-05)
(0.0025865783 2.568784e-05 1.4499382e-05)
(0.002502978 2.3720893e-05 1.2475016e-05)
(0.0024274871 2.195843e-05 1.0761726e-05)
(0.0023590736 2.0362993e-05 9.3122319e-06)
(0.0022968589 1.8909454e-05 8.0861284e-06)
(0.0022400906 1.7580768e-05 7.0489623e-06)
(0.0021881216 1.6364898e-05 6.1714973e-06)
(0.0021403932 1.5251962e-05 5.4283144e-06)
(0.0020964214 1.4233849e-05 4.7973508e-06)
(0.0020557868 1.3303041e-05 4.2604822e-06)
(0.0020181236 1.2451986e-05 3.802704e-06)
(0.0019831119 1.1673907e-05 3.4109606e-06)
(0.0019504718 1.0962755e-05 3.0744208e-06)
(0.0019199589 1.0312853e-05 2.7842605e-06)
(0.0018913593 9.7188336e-06 2.5331798e-06)
(0.0018644851 9.1756439e-06 2.3150736e-06)
(0.0018391716 8.6785718e-06 2.1248309e-06)
(0.0018152735 8.2232423e-06 1.9581841e-06)
(0.0017926629 7.8056202e-06 1.8115684e-06)
(0.0017712268 7.4219973e-06 1.6820119e-06)
(0.001750865 7.0689378e-06 1.5670695e-06)
(0.0017314886 6.7432696e-06 1.4647422e-06)
(0.0017130186 6.442274e-06 1.373276e-06)
(0.0016953848 6.1635583e-06 1.2911606e-06)
(0.0016785241 5.9049789e-06 1.2171202e-06)
(0.00166238 5.664611e-06 1.1500849e-06)
(0.0016469019 5.4407254e-06 1.089149e-06)
(0.001632044 5.2317767e-06 1.0335526e-06)
(0.0016177648 5.036385e-06 9.8265461e-07)
(0.0016040271 4.8533223e-06 9.3589515e-07)
(0.0015907965 4.6815621e-06 8.9273766e-07)
(0.0015780424 4.5201565e-06 8.5278633e-07)
(0.0015657364 4.3681546e-06 8.1577038e-07)
(0.0015538526 4.2246829e-06 7.8138465e-07)
(0.0015423672 4.0890585e-06 7.4934554e-07)
(0.0015312583 3.9607284e-06 7.1941318e-07)
(0.0015205058 3.8391519e-06 6.9138757e-07)
(0.0015100909 3.7238109e-06 6.6509403e-07)
(0.0014999963 3.6142423e-06 6.4037996e-07)
(0.0014902061 3.5100302e-06 6.171088e-07)
(0.0014807053 3.4107989e-06 5.9516057e-07)
(0.00147148 3.3162117e-06 5.7442786e-07)
(0.0014625175 3.2259591e-06 5.5481511e-07)
(0.0014538055 3.1397546e-06 5.3623466e-07)
(0.0014453328 3.0573348e-06 5.1861208e-07)
(0.0014370889 2.9784698e-06 5.0187871e-07)
(0.0014290637 2.9029581e-06 4.8596795e-07)
(0.001421248 2.8306041e-06 4.7082359e-07)
(0.001413633 2.7612185e-06 4.563929e-07)
(0.0014062104 2.6946335e-06 4.4262837e-07)
(0.0013989723 2.6306906e-06 4.2948837e-07)
(0.0013919116 2.5692462e-06 4.1693089e-07)
(0.0013850212 2.5101634e-06 4.0492086e-07)
(0.0013782945 2.4533187e-06 3.9342523e-07)
(0.0013717253 2.3985951e-06 3.8241203e-07)
(0.0013653078 2.3458848e-06 3.7185157e-07)
(0.0013590364 2.2950861e-06 3.6171747e-07)
(0.0013529058 2.2461048e-06 3.519839e-07)
(0.001346911 2.1988515e-06 3.4262548e-07)
(0.0013410472 2.1532408e-06 3.3361986e-07)
(0.0013353099 2.1091949e-06 3.2494529e-07)
(0.001329695 2.0666359e-06 3.1657853e-07)
(0.0013241983 2.0254877e-06 3.0850027e-07)
(0.001318816 1.9856742e-06 3.0069114e-07)
(0.0013135446 1.9471131e-06 2.9313133e-07)
(0.0013083808 1.9097275e-06 2.8580599e-07)
(0.0013033213 1.8734239e-06 2.7870312e-07)
(0.0012983632 1.8381158e-06 2.7181719e-07)
(0.0012935038 1.8037146e-06 2.6515379e-07)
(0.0012887402 1.7701683e-06 2.5874344e-07)
(0.0012840698 1.7375334e-06 2.5265011e-07)
(0.0012794889 1.7061202e-06 2.4701408e-07)
(0.0012749925 1.6769094e-06 2.4211404e-07)
(0.001270572 1.6524675e-06 2.3851902e-07)
(0.0012662098 1.639332e-06 2.3765939e-07)
(0.0012618709 1.6545774e-06 2.4458279e-07)
(0.0012574959 1.7463706e-06 2.7712536e-07)
(0.0012529717 2.0376718e-06 2.6526384e-07)
(0.0012433358 2.9514827e-06 1.3525332e-06)
(0.0095221617 0.00021179965 0.00022180582)
(0.009269783 0.00029872516 0.00026628967)
(0.0088657772 0.00031669844 0.00025526743)
(0.0083755729 0.000317438 0.00023864265)
(0.0078888426 0.00030841043 0.00021987851)
(0.0074276349 0.00028848207 0.00019850458)
(0.006988258 0.00026048391 0.00017617916)
(0.0065698164 0.00022855168 0.00015444521)
(0.0061756011 0.00019596771 0.00013413534)
(0.0058087146 0.00016504408 0.00011567593)
(0.0054706295 0.00013728621 9.9270838e-05)
(0.0051615551 0.00011345265 8.4947831e-05)
(0.0048808654 9.3684507e-05 7.2600738e-05)
(0.0046272998 7.7712987e-05 6.2044901e-05)
(0.0043991196 6.5057024e-05 5.3064543e-05)
(0.0041942886 5.5163885e-05 4.5443629e-05)
(0.0040106431 4.7493345e-05 3.8982753e-05)
(0.0038460219 4.1561375e-05 3.3506381e-05)
(0.0036983537 3.6958193e-05 2.8864075e-05)
(0.0035657105 3.3351174e-05 2.4928487e-05)
(0.0034463343 3.0479501e-05 2.1592136e-05)
(0.003338646 2.8144767e-05 1.8764099e-05)
(0.003241243 2.6200154e-05 1.6367139e-05)
(0.0031528887 2.4539751e-05 1.4335369e-05)
(0.0030724986 2.3088866e-05 1.261249e-05)
(0.0029991252 2.1796112e-05 1.1150134e-05)
(0.0029319421 2.0626905e-05 9.9064825e-06)
(0.0028702292 1.9558162e-05 8.8458156e-06)
(0.0028133589 1.8574036e-05 7.9385382e-06)
(0.0027607855 1.7663623e-05 7.1598235e-06)
(0.0027120345 1.6818833e-05 6.4890358e-06)
(0.0026666927 1.6033066e-05 5.9090206e-06)
(0.0026243991 1.5301094e-05 5.4052741e-06)
(0.0025848382 1.461882e-05 4.9656529e-06)
(0.0025477347 1.3982713e-05 4.5801143e-06)
(0.0025128472 1.3389543e-05 4.2403276e-06)
(0.002479964 1.283628e-05 3.9393568e-06)
(0.0024488994 1.2320058e-05 3.6714258e-06)
(0.0024194896 1.1838144e-05 3.4317264e-06)
(0.00239159 1.138794e-05 3.2162517e-06)
(0.0023650729 1.0966986e-05 3.0216602e-06)
(0.0023398248 1.0572999e-05 2.8451738e-06)
(0.0023157449 1.0203875e-05 2.6844747e-06)
(0.0022927433 9.8575819e-06 2.5375945e-06)
(0.0022707398 9.5322175e-06 2.4028642e-06)
(0.002249662 9.2260306e-06 2.2788667e-06)
(0.0022294453 8.9374194e-06 2.1644e-06)
(0.0022100312 8.6649292e-06 2.0584377e-06)
(0.0021913666 8.4072369e-06 1.9601e-06)
(0.0021734038 8.1631556e-06 1.8686319e-06)
(0.0021560989 7.9316223e-06 1.7833674e-06)
(0.0021394122 7.7117231e-06 1.703708e-06)
(0.0021233074 7.5026013e-06 1.6291506e-06)
(0.0021077512 7.3033794e-06 1.5592829e-06)
(0.0020927129 7.1131877e-06 1.4937194e-06)
(0.0020781645 6.9314153e-06 1.4321043e-06)
(0.0020640799 6.7576054e-06 1.3741149e-06)
(0.0020504351 6.5912615e-06 1.3194612e-06)
(0.0020372075 6.4318784e-06 1.2678944e-06)
(0.0020243766 6.2790073e-06 1.2191869e-06)
(0.0020119231 6.1322417e-06 1.1731316e-06)
(0.001999829 5.9912201e-06 1.129543e-06)
(0.0019880776 5.8556112e-06 1.0882502e-06)
(0.0019766531 5.7251048e-06 1.0490958e-06)
(0.0019655411 5.5994082e-06 1.0119371e-06)
(0.0019547276 5.4782439e-06 9.7664561e-07)
(0.0019441999 5.3613899e-06 9.431006e-07)
(0.0019339458 5.2486473e-06 9.1118944e-07)
(0.0019239539 5.1398181e-06 8.8080763e-07)
(0.0019142135 5.0347013e-06 8.5185975e-07)
(0.0019047144 4.9331174e-06 8.2425967e-07)
(0.001895447 4.8348992e-06 7.9792477e-07)
(0.0018864023 4.7398903e-06 7.7278081e-07)
(0.0018775718 4.6479437e-06 7.4875704e-07)
(0.0018689473 4.5589224e-06 7.2578794e-07)
(0.0018605211 4.4726998e-06 7.0381474e-07)
(0.0018522861 4.3891532e-06 6.8277785e-07)
(0.0018442353 4.3081685e-06 6.6262587e-07)
(0.0018363621 4.2296384e-06 6.4330836e-07)
(0.0018286604 4.1534582e-06 6.2477679e-07)
(0.0018211241 4.079528e-06 6.0698812e-07)
(0.0018137478 4.0077525e-06 5.8990033e-07)
(0.0018065261 3.9380351e-06 5.7347292e-07)
(0.001799454 3.8702791e-06 5.5766718e-07)
(0.0017925266 3.8043823e-06 5.4244699e-07)
(0.0017857396 3.7402371e-06 5.2777887e-07)
(0.0017790885 3.6777269e-06 5.1362954e-07)
(0.0017725695 3.6167259e-06 4.9997015e-07)
(0.0017661787 3.5571078e-06 4.8677579e-07)
(0.0017599128 3.4987604e-06 4.7402531e-07)
(0.0017537682 3.4416531e-06 4.6171012e-07)
(0.0017477416 3.3859637e-06 4.4983603e-07)
(0.0017418294 3.3323806e-06 4.3844278e-07)
(0.0017360272 3.2827916e-06 4.2764596e-07)
(0.0017303281 3.2417781e-06 4.1776821e-07)
(0.0017247202 3.2200406e-06 4.0999056e-07)
(0.001719183 3.2421556e-06 4.0984909e-07)
(0.001713691 3.3643444e-06 4.4114369e-07)
(0.0017081999 3.7072198e-06 4.7353332e-07)
(0.0016974804 4.4611197e-06 1.8634993e-06)
(0.0095012861 0.00013951169 0.00022248511)
(0.0092133349 0.00022408324 0.00026709763)
(0.0088018509 0.0002570094 0.00025529581)
(0.0083306071 0.00026690691 0.0002382081)
(0.0078754299 0.00026502158 0.00021939837)
(0.0074527063 0.0002529565 0.00019823245)
(0.0070564396 0.00023295893 0.00017634609)
(0.0066827538 0.00020836345 0.0001552305)
(0.006331873 0.00018203353 0.00013558338)
(0.0060047052 0.00015603739 0.00011769036)
(0.0057015056 0.00013180401 0.00010166909)
(0.0054220192 0.00011020725 8.7524314e-05)
(0.0051656909 9.16319e-05 7.5171987e-05)
(0.0049316845 7.6091186e-05 6.4472619e-05)
(0.0047188814 6.3363142e-05 5.526115e-05)
(0.0045259349 5.3104939e-05 4.7366821e-05)
(0.0043513547 4.4932756e-05 4.06249e-05)
(0.0041935865 3.8471359e-05 3.4883032e-05)
(0.0040510752 3.3381245e-05 3.0003996e-05)
(0.0039223115 2.9370508e-05 2.5866182e-05)
(0.0038058643 2.6197261e-05 2.2362868e-05)
(0.0037004012 2.366673e-05 1.9400963e-05)
(0.0036047 2.1625756e-05 1.6899611e-05)
(0.0035176529 1.9956324e-05 1.4788824e-05)
(0.0034382652 1.8569047e-05 1.3008105e-05)
(0.0033656513 1.7397361e-05 1.1504744e-05)
(0.0032990266 1.6392004e-05 1.0233523e-05)
(0.0032376995 1.5516241e-05 9.1565347e-06)
(0.0031810636 1.4743888e-05 8.2421113e-06)
(0.0031285885 1.4056151e-05 7.4635746e-06)
(0.0030798115 1.3438893e-05 6.7985204e-06)
(0.0030343294 1.2881151e-05 6.2282218e-06)
(0.0029917905 1.2374495e-05 5.7369829e-06)
(0.0029518882 1.1912421e-05 5.311666e-06)
(0.0029143553 1.1489691e-05 4.9413539e-06)
(0.0028789586 1.1101928e-05 4.6170011e-06)
(0.0028454946 1.074538e-05 4.331122e-06)
(0.0028137847 1.0416775e-05 4.0775279e-06)
(0.0027836727 1.0113217e-05 3.8511079e-06)
(0.0027550209 9.8321219e-06 3.6476456e-06)
(0.0027277081 9.5711606e-06 3.4636649e-06)
(0.002701627 9.3282507e-06 3.2963007e-06)
(0.0026766823 9.1015163e-06 3.1431911e-06)
(0.0026527895 8.8892447e-06 3.0023824e-06)
(0.0026298729 8.6898923e-06 2.8722559e-06)
(0.0026078648 8.5020905e-06 2.7514711e-06)
(0.002586704 8.3246172e-06 2.6389104e-06)
(0.0025663358 8.1563964e-06 2.5336417e-06)
(0.0025467102 7.9964767e-06 2.4348849e-06)
(0.002527782 7.8440277e-06 2.3419788e-06)
(0.0025095101 7.6983392e-06 2.2543612e-06)
(0.0024918566 7.5588101e-06 2.1715447e-06)
(0.0024747871 7.4248991e-06 2.0931124e-06)
(0.0024582699 7.2960214e-06 2.0187192e-06)
(0.0024422756 7.1714388e-06 1.9480682e-06)
(0.0024267775 7.0509291e-06 1.8808976e-06)
(0.0024117506 6.9343768e-06 1.8169522e-06)
(0.0023971715 6.8214895e-06 1.7560021e-06)
(0.0023830185 6.7119551e-06 1.6978516e-06)
(0.0023692714 6.605539e-06 1.6423268e-06)
(0.0023559116 6.5020453e-06 1.5892714e-06)
(0.0023429214 6.4013085e-06 1.5385383e-06)
(0.0023302844 6.3031805e-06 1.4899948e-06)
(0.0023179851 6.207526e-06 1.4435166e-06)
(0.0023060089 6.1142044e-06 1.3989941e-06)
(0.0022943424 6.0230679e-06 1.3563259e-06)
(0.0022829727 5.9340576e-06 1.3154156e-06)
(0.0022718877 5.8471278e-06 1.2761703e-06)
(0.002261076 5.7622021e-06 1.2385021e-06)
(0.0022505267 5.6791963e-06 1.2023304e-06)
(0.0022402296 5.5980406e-06 1.1675831e-06)
(0.0022301752 5.5186712e-06 1.1341875e-06)
(0.0022203542 5.4410294e-06 1.1020817e-06)
(0.002210758 5.3650619e-06 1.0711998e-06)
(0.0022013784 5.2907158e-06 1.0414856e-06)
(0.0021922076 5.2179482e-06 1.0128824e-06)
(0.0021832381 5.1467095e-06 9.8533828e-07)
(0.0021744628 5.0769569e-06 9.5880344e-07)
(0.0021658752 5.0086492e-06 9.3323099e-07)
(0.0021574688 4.9417446e-06 9.085745e-07)
(0.0021492375 4.8761981e-06 8.847918e-07)
(0.0021411756 4.8119663e-06 8.6183956e-07)
(0.0021332776 4.749e-06 8.3967856e-07)
(0.0021255383 4.6872403e-06 8.1827049e-07)
(0.0021179527 4.6266213e-06 7.9757749e-07)
(0.0021105161 4.5670677e-06 7.7756078e-07)
(0.0021032242 4.5084811e-06 7.5818426e-07)
(0.0020960727 4.4507546e-06 7.3941081e-07)
(0.0020890577 4.3937752e-06 7.2120398e-07)
(0.0020821756 4.3374552e-06 7.0352178e-07)
(0.002075423 4.2818107e-06 6.8632149e-07)
(0.0020687967 4.2271325e-06 6.6956062e-07)
(0.0020622937 4.1743529e-06 6.5320317e-07)
(0.002055911 4.125815e-06 6.3726124e-07)
(0.0020496453 4.0868296e-06 6.2198432e-07)
(0.0020434926 4.0687773e-06 6.0874605e-07)
(0.0020374483 4.0948768e-06 6.0452057e-07)
(0.0020315149 4.2094264e-06 6.3987769e-07)
(0.0020256647 4.4797486e-06 7.1688426e-07)
(0.0020144539 4.9057756e-06 2.2695265e-06)
(0.0094902877 9.6726608e-05 0.00022289229)
(0.00917661 0.00016632333 0.00026788105)
(0.0087449456 0.00019969046 0.00025550648)
(0.0082664657 0.00021101604 0.00023762681)
(0.00781215 0.0002109939 0.0002181603)
(0.0073950862 0.0002028236 0.00019646328)
(0.0070087986 0.00018827265 0.00017418493)
(0.006648835 0.00016968865 0.0001528463)
(0.0063142174 0.00014929332 0.00013312182)
(0.0060045996 0.00012875288 0.0001152379)
(0.0057192201 0.00010923292 9.9256792e-05)
(0.0054570682 9.1490072e-05 8.514891e-05)
(0.0052170782 7.5923401e-05 7.2816211e-05)
(0.0049981259 6.2643331e-05 6.2119133e-05)
(0.0047989841 5.1561152e-05 5.2900047e-05)
(0.0046183234 4.2472278e-05 4.4997976e-05)
(0.0044547458 3.5118725e-05 3.8256897e-05)
(0.0043068267 2.9230544e-05 3.2530442e-05)
(0.0041731526 2.4550833e-05 2.7684339e-05)
(0.0040523509 2.0849109e-05 2.3597362e-05)
(0.0039431142 1.7926911e-05 2.0161345e-05)
(0.0038442168 1.5618597e-05 1.7280682e-05)
(0.0037545253 1.3789363e-05 1.4871532e-05)
(0.0036730042 1.2331757e-05 1.2860863e-05)
(0.0035987172 1.1161538e-05 1.1185212e-05)
(0.0035308246 1.0213366e-05 9.7889743e-06)
(0.0034685786 9.438083e-06 8.6250718e-06)
(0.0034113173 8.7971276e-06 7.6543141e-06)
(0.0033584589 8.2627212e-06 6.8439386e-06)
(0.0033094933 7.8140813e-06 6.166455e-06)
(0.0032639753 7.4348223e-06 5.5988453e-06)
(0.0032215172 7.1121286e-06 5.121927e-06)
(0.0031817817 6.8360962e-06 4.7197273e-06)
(0.0031444758 6.5990203e-06 4.3789723e-06)
(0.0031093448 6.3947805e-06 4.0886808e-06)
(0.0030761678 6.2184054e-06 3.8397978e-06)
(0.0030447526 6.0657961e-06 3.624879e-06)
(0.003014932 5.9335263e-06 3.4378174e-06)
(0.0029865602 5.8186957e-06 3.2736187e-06)
(0.0029595097 5.7188194e-06 3.1282054e-06)
(0.002933669 5.6317497e-06 2.9982618e-06)
(0.0029089401 5.5556275e-06 2.8810979e-06)
(0.0028852364 5.4888245e-06 2.7745339e-06)
(0.0028624815 5.4299142e-06 2.6768097e-06)
(0.0028406075 5.3776426e-06 2.5865042e-06)
(0.0028195538 5.3309242e-06 2.5024727e-06)
(0.0027992664 5.2888094e-06 2.4237898e-06)
(0.0027796963 5.2504821e-06 2.3497116e-06)
(0.0027607998 5.2152426e-06 2.279639e-06)
(0.002742537 5.1824971e-06 2.2130846e-06)
(0.0027248716 5.151768e-06 2.1496547e-06)
(0.0027077708 5.1226689e-06 2.0890226e-06)
(0.0026912041 5.0948969e-06 2.0309196e-06)
(0.0026751435 5.0680873e-06 1.9751362e-06)
(0.0026595636 5.041065e-06 1.9215394e-06)
(0.0026444411 5.0142598e-06 1.8699666e-06)
(0.002629754 4.9880174e-06 1.8202517e-06)
(0.0026154815 4.962073e-06 1.7722798e-06)
(0.0026016045 4.9361403e-06 1.7259609e-06)
(0.0025881054 4.9100845e-06 1.6812134e-06)
(0.0025749674 4.8838319e-06 1.6379649e-06)
(0.002562175 4.8573394e-06 1.5961457e-06)
(0.0025497136 4.8305806e-06 1.5556929e-06)
(0.0025375693 4.8035394e-06 1.5165483e-06)
(0.0025257292 4.7761753e-06 1.478661e-06)
(0.002514181 4.7483833e-06 1.4419859e-06)
(0.0025029134 4.7202747e-06 1.4064845e-06)
(0.0024919154 4.6919148e-06 1.372103e-06)
(0.0024811765 4.6632896e-06 1.3387983e-06)
(0.002470687 4.6344005e-06 1.3065295e-06)
(0.0024604377 4.6052669e-06 1.2752603e-06)
(0.0024504197 4.575908e-06 1.2449534e-06)
(0.0024406247 4.5463446e-06 1.2155765e-06)
(0.0024310448 4.5166001e-06 1.1870927e-06)
(0.0024216723 4.4866937e-06 1.159473e-06)
(0.0024125001 4.4566507e-06 1.1326843e-06)
(0.0024035213 4.4264883e-06 1.1066968e-06)
(0.0023947295 4.3962283e-06 1.0814821e-06)
(0.0023861184 4.3658882e-06 1.0570137e-06)
(0.0023776821 4.3354859e-06 1.03326e-06)
(0.0023694149 4.3050338e-06 1.0101963e-06)
(0.0023613115 4.2745358e-06 9.8779494e-07)
(0.0023533667 4.2439947e-06 9.6602973e-07)
(0.0023455757 4.2133976e-06 9.4487463e-07)
(0.0023379338 4.18272e-06 9.2430021e-07)
(0.0023304365 4.1519254e-06 9.0427599e-07)
(0.0023230798 4.1209536e-06 8.8477229e-07)
(0.0023158598 4.0897251e-06 8.6575193e-07)
(0.0023087726 4.0581567e-06 8.4717329e-07)
(0.002301815 4.026192e-06 8.2898085e-07)
(0.0022949838 3.9938775e-06 8.1110602e-07)
(0.0022882766 3.9615301e-06 7.9346362e-07)
(0.002281691 3.9300777e-06 7.759443e-07)
(0.0022752261 3.9016923e-06 7.5847775e-07)
(0.002268882 3.8809409e-06 7.4124732e-07)
(0.0022626608 3.8766477e-06 7.2572703e-07)
(0.0022565686 3.9043045e-06 7.1957909e-07)
(0.0022506189 3.9866559e-06 7.5579839e-07)
(0.0022447715 4.1391006e-06 8.4931694e-07)
(0.002233564 4.2832258e-06 2.4122116e-06)
(0.0094843561 6.6886587e-05 0.00022303624)
(0.0091549219 0.00011904886 0.00026838771)
(0.0087072816 0.00014772497 0.00025588053)
(0.0082191888 0.00015892952 0.00023765677)
(0.0077602858 0.00016026049 0.00021787142)
(0.0073412804 0.00015505102 0.00019586613)
(0.0069552494 0.00014481701 0.00017327438)
(0.0065978366 0.00013121474 0.00015165024)
(0.0062677954 0.00011592881 0.00013169211)
(0.0059642872 0.00010028521 0.0001136244)
(0.0056860598 8.5214432e-05 9.7497523e-05)
(0.0054316726 7.1330408e-05 8.3272196e-05)
(0.0051997008 5.8984299e-05 7.0844883e-05)
(0.0049887459 4.8311753e-05 6.0073372e-05)
(0.0047973943 3.9291583e-05 5.079889e-05)
(0.0046242055 3.1804353e-05 4.2859902e-05)
(0.0044677269 2.5679085e-05 3.6099806e-05)
(0.0043265179 2.0725785e-05 3.0371291e-05)
(0.0041991724 1.6756343e-05 2.5538703e-05)
(0.004084339 1.3596837e-05 2.1479082e-05)
(0.0039807371 1.1093752e-05 1.8082323e-05)
(0.0038871692 9.1161617e-06 1.525079e-05)
(0.0038025288 7.5553772e-06 1.2898647e-05)
(0.003725804 6.3231327e-06 1.0950987e-05)
(0.0036560786 5.3488191e-06 9.3426785e-06)
(0.0035925304 4.5751814e-06 8.016614e-06)
(0.0035344253 3.9621009e-06 6.9239485e-06)
(0.0034811131 3.4726278e-06 6.025073e-06)
(0.0034320221 3.0815207e-06 5.2862627e-06)
(0.0033866501 2.7702762e-06 4.6792103e-06)
(0.0033445586 2.5236726e-06 4.180521e-06)
(0.0033053662 2.3295848e-06 3.770753e-06)
(0.0032687419 2.1784959e-06 3.4337449e-06)
(0.0032343982 2.0629056e-06 3.1561114e-06)
(0.0032020863 1.9768105e-06 2.9267976e-06)
(0.0031715907 1.9153175e-06 2.7367039e-06)
(0.0031427248 1.8743802e-06 2.5783557e-06)
(0.0031153267 1.8506051e-06 2.445628e-06)
(0.0030892563 1.841124e-06 2.3335229e-06)
(0.0030643915 1.8434984e-06 2.2379681e-06)
(0.003040626 1.855645e-06 2.1556643e-06)
(0.0030178671 1.8757809e-06 2.083952e-06)
(0.0029960335 1.9023815e-06 2.0206952e-06)
(0.0029750538 1.9341338e-06 1.9641825e-06)
(0.0029548648 1.9699148e-06 1.9130531e-06)
(0.0029354109 2.0087624e-06 1.8662271e-06)
(0.0029166424 2.0498579e-06 1.8228532e-06)
(0.0028985148 2.092509e-06 1.7822573e-06)
(0.0028809885 2.136137e-06 1.7439144e-06)
(0.0028640277 2.1802705e-06 1.7074109e-06)
(0.0028476 2.2245509e-06 1.6724143e-06)
(0.0028316758 2.2687617e-06 1.6386565e-06)
(0.0028162284 2.3128941e-06 1.6058715e-06)
(0.0028012324 2.3570788e-06 1.5738224e-06)
(0.0027866658 2.3978715e-06 1.5431887e-06)
(0.0027725089 2.4362356e-06 1.5136864e-06)
(0.0027587418 2.4734398e-06 1.484889e-06)
(0.002745346 2.5095352e-06 1.4567012e-06)
(0.002732305 2.5443508e-06 1.4291165e-06)
(0.0027196032 2.5777719e-06 1.4021101e-06)
(0.0027072261 2.6097241e-06 1.375663e-06)
(0.0026951602 2.6401664e-06 1.3497566e-06)
(0.0026833928 2.6690892e-06 1.3243757e-06)
(0.0026719116 2.6965042e-06 1.2995092e-06)
(0.0026607054 2.7223714e-06 1.2751514e-06)
(0.0026497635 2.7463547e-06 1.2513136e-06)
(0.002639076 2.7689079e-06 1.2279783e-06)
(0.0026286333 2.7901464e-06 1.2051294e-06)
(0.0026184262 2.8099927e-06 1.1827611e-06)
(0.0026084461 2.8284321e-06 1.16087e-06)
(0.0025986849 2.8454924e-06 1.1394487e-06)
(0.0025891348 2.8612163e-06 1.1184903e-06)
(0.0025797885 2.8756475e-06 1.0979861e-06)
(0.002570639 2.8888285e-06 1.0779285e-06)
(0.0025616795 2.9008046e-06 1.0583086e-06)
(0.0025529038 2.9116191e-06 1.0391184e-06)
(0.0025443058 2.9213132e-06 1.020349e-06)
(0.0025358796 2.9299293e-06 1.0019899e-06)
(0.0025276198 2.9375055e-06 9.8403275e-07)
(0.002519521 2.9440783e-06 9.6646637e-07)
(0.0025115783 2.9496822e-06 9.4927941e-07)
(0.0025037869 2.9543379e-06 9.3246157e-07)
(0.0024961421 2.9580681e-06 9.159997e-07)
(0.0024886396 2.9608814e-06 8.9987963e-07)
(0.0024812752 2.9627721e-06 8.8408521e-07)
(0.002474045 2.9637208e-06 8.6859401e-07)
(0.0024669452 2.963687e-06 8.5338205e-07)
(0.0024599723 2.9626124e-06 8.3841429e-07)
(0.0024531231 2.9604316e-06 8.2364383e-07)
(0.0024463945 2.9570975e-06 8.0900368e-07)
(0.0024397839 2.9526532e-06 7.9439891e-07)
(0.0024332895 2.9473515e-06 7.7969397e-07)
(0.0024269099 2.9419128e-06 7.6470976e-07)
(0.0024206457 2.9379218e-06 7.4926006e-07)
(0.0024144993 2.93842e-06 7.3336503e-07)
(0.0024084767 2.9484959e-06 7.1826486e-07)
(0.0024025877 2.9751264e-06 7.1113348e-07)
(0.002396846 3.0234621e-06 7.4331365e-07)
(0.0023911946 3.0808313e-06 8.3046636e-07)
(0.0023803644 3.0574266e-06 2.2999445e-06)
(0.0094810492 4.4090136e-05 0.00022308885)
(0.0091422796 7.9975483e-05 0.00026874495)
(0.0086839084 0.00010160921 0.00025628771)
(0.0081880903 0.00011101591 0.00023793456)
(0.0077246858 0.00011275117 0.00021798622)
(0.0073029895 0.00010953687 0.00019578738)
(0.0069155191 0.00010266029 0.00017296032)
(0.0065579578 9.3267237e-05 0.0001510852)
(0.006229001 8.2539593e-05 0.00013089045)
(0.005927585 7.1446832e-05 0.00011261412)
(0.0056522063 6.067336e-05 9.6309239e-05)
(0.0054012005 5.0670808e-05 8.1936268e-05)
(0.0051729477 4.1706609e-05 6.9390832e-05)
(0.004965887 3.3898116e-05 5.8529097e-05)
(0.0047784814 2.7249953e-05 4.9189879e-05)
(0.0046092054 2.1693072e-05 4.1208774e-05)
(0.0044565535 1.7117436e-05 3.4426144e-05)
(0.0043190553 1.3395518e-05 2.8691658e-05)
(0.0041952917 1.039781e-05 2.3866804e-05)
(0.0040839086 8.00233e-06 1.9826011e-05)
(0.0039836292 6.0997674e-06 1.6456861e-05)
(0.0038932634 4.59566e-06 1.3659716e-05)
(0.0038117126 3.4106706e-06 1.1347013e-05)
(0.0037379734 2.4799276e-06 9.4422921e-06)
(0.0036711359 1.7515112e-06 7.8790895e-06)
(0.0036103859 1.1749054e-06 6.6010333e-06)
(0.0035549935 7.2234089e-07 5.5561194e-06)
(0.0035043108 3.7342641e-07 4.7060693e-06)
(0.0034577717 1.0569758e-07 4.0163437e-06)
(0.0034148763 -9.908915e-08 3.4574137e-06)
(0.0033751872 -2.5333605e-07 3.0054946e-06)
(0.0033383243 -3.6640043e-07 2.6409746e-06)
(0.0033039576 -4.4578028e-07 2.3475731e-06)
(0.0032718009 -4.9748337e-07 2.1118264e-06)
(0.0032416065 -5.2634553e-07 1.9226422e-06)
(0.0032131599 -5.3631064e-07 1.7709149e-06)
(0.0031862758 -5.3064047e-07 1.6492029e-06)
(0.0031607936 -5.1206303e-07 1.5514408e-06)
(0.0031365743 -4.8287252e-07 1.472711e-06)
(0.0031134976 -4.4500827e-07 1.4090343e-06)
(0.0030914586 -4.0011123e-07 1.3572067e-06)
(0.0030703663 -3.4957919e-07 1.3146574e-06)
(0.0030501409 -2.9459409e-07 1.2793307e-06)
(0.0030307129 -2.3616997e-07 1.2495922e-06)
(0.0030120207 -1.7516581e-07 1.2241402e-06)
(0.0029940105 -1.1232202e-07 1.2019529e-06)
(0.0029766343 -4.8268489e-08 1.1822228e-06)
(0.0029598495 1.6448074e-08 1.1643223e-06)
(0.0029436181 8.1354771e-08 1.1477535e-06)
(0.002927906 1.4602503e-07 1.1321247e-06)
(0.0029126825 2.1005819e-07 1.1171188e-06)
(0.0028979201 2.7304946e-07 1.102439e-06)
(0.0028835935 3.3454152e-07 1.0876603e-06)
(0.0028696773 3.9432178e-07 1.0722026e-06)
(0.0028561514 4.5704826e-07 1.0590086e-06)
(0.0028429997 5.2060008e-07 1.0472573e-06)
(0.0028302035 5.8225381e-07 1.0356081e-06)
(0.0028177449 6.4163835e-07 1.0238005e-06)
(0.0028056084 6.9901949e-07 1.0118754e-06)
(0.0027937799 7.5456064e-07 9.9986811e-07)
(0.0027822461 8.0835052e-07 9.8780935e-07)
(0.0027709946 8.6046897e-07 9.7571875e-07)
(0.0027600137 9.1102717e-07 9.6360261e-07)
(0.0027492926 9.6019588e-07 9.5144658e-07)
(0.0027388207 1.0080053e-06 9.3926611e-07)
(0.0027285887 1.0528494e-06 9.2746579e-07)
(0.0027185878 1.0958667e-06 9.1583035e-07)
(0.0027088089 1.1374986e-06 9.0425457e-07)
(0.0026992438 1.1777661e-06 8.9275976e-07)
(0.0026898847 1.2166566e-06 8.8136598e-07)
(0.0026807244 1.2541679e-06 8.7007991e-07)
(0.0026717559 1.2903127e-06 8.5890697e-07)
(0.0026629726 1.3251068e-06 8.4785309e-07)
(0.0026543682 1.3585723e-06 8.3692319e-07)
(0.0026459367 1.3907401e-06 8.2612257e-07)
(0.0026376723 1.4216347e-06 8.1545249e-07)
(0.0026295698 1.451289e-06 8.0491969e-07)
(0.0026216238 1.4797315e-06 7.9452304e-07)
(0.0026138294 1.5069906e-06 7.8426356e-07)
(0.002606182 1.5330925e-06 7.7413994e-07)
(0.0025986769 1.5580628e-06 7.6415223e-07)
(0.0025913099 1.5819206e-06 7.542957e-07)
(0.0025840769 1.6046807e-06 7.4456489e-07)
(0.0025769739 1.6263484e-06 7.3495332e-07)