/*--------------------------------*- C++ -*----------------------------------*\
  =========                 |
  \\      /  F ield         | OpenFOAM: The Open Source CFD Toolbox
   \\    /   O peration     | Website:  https://openfoam.org
    \\  /    A nd           | Version:  7
     \\/     M anipulation  |
\*---------------------------------------------------------------------------*/
FoamFile
{
    version     2.0;
    format      ascii;
    class       surfaceScalarField;
    location    "2250/water";
    object      phi;
}
// * * * * * * * * * * * * * * * * * * * * * * * * * * * * * * * * * * * * * //

dimensions      [1 0 -1 0 0 0 0];

internalField   nonuniform List<scalar> 
156660
(
9.905724e-05
6.0010402e-06
6.0528092e-06
8.6847498e-05
6.0555113e-06
6.1542307e-06
7.5687891e-05
5.5111362e-06
5.6484701e-06
6.5441704e-05
5.0404181e-06
5.2057689e-06
5.6267661e-05
4.4956436e-06
4.6783991e-06
4.8318019e-05
3.8797648e-06
4.0698777e-06
4.1624776e-05
3.2524449e-06
3.4407981e-06
3.6124897e-05
2.660462e-06
2.839417e-06
3.1692235e-05
2.1345127e-06
2.2981489e-06
2.8162841e-05
1.6926975e-06
1.8366964e-06
2.5361437e-05
1.3399934e-06
1.4614113e-06
2.3124664e-05
1.0698477e-06
1.1669256e-06
2.1315127e-05
8.6875418e-07
9.4078225e-07
1.9825714e-05
7.2110062e-07
7.6831271e-07
1.8577278e-05
6.1248245e-07
6.3595307e-07
1.7513255e-05
5.3125221e-07
5.327715e-07
1.6593744e-05
4.6879724e-07
4.5071348e-07
1.5790433e-05
4.1913718e-07
3.8417385e-07
1.5082784e-05
3.7829069e-07
3.2935849e-07
1.4455417e-05
3.4367126e-07
2.8369564e-07
1.3896409e-05
3.1361408e-07
2.4539334e-07
1.339622e-05
2.8704448e-07
2.1314451e-07
1.2947015e-05
2.632603e-07
1.859451e-07
1.2542237e-05
2.4179366e-07
1.6298462e-07
1.2176318e-05
2.2232208e-07
1.4359691e-07
1.1844484e-05
2.0461478e-07
1.2721879e-07
1.1542609e-05
1.8849496e-07
1.1337973e-07
1.1267116e-05
1.7381576e-07
1.0167792e-07
1.1014892e-05
1.604627e-07
9.1760838e-08
1.0783252e-05
1.4833966e-07
8.3300581e-08
1.0569851e-05
1.3734904e-07
7.6052137e-08
1.0372614e-05
1.2738863e-07
6.9848331e-08
1.0189731e-05
1.1836807e-07
6.4514833e-08
1.001963e-05
1.1020446e-07
5.989662e-08
9.8609388e-06
1.0281922e-07
5.5871643e-08
9.7124594e-06
9.6137978e-08
5.2341359e-08
9.5731439e-06
9.0091191e-08
4.9224342e-08
9.4420759e-06
8.4614475e-08
4.6453588e-08
9.3184531e-06
7.9648667e-08
4.397411e-08
9.2015723e-06
7.5139714e-08
4.1741061e-08
9.0908166e-06
7.1038156e-08
3.9717557e-08
8.9856432e-06
6.730115e-08
3.7872324e-08
8.8855708e-06
6.3894263e-08
3.6178161e-08
8.7901757e-06
6.078009e-08
3.4614926e-08
8.6990829e-06
5.7926168e-08
3.3166645e-08
8.6119591e-06
5.5303732e-08
3.1820132e-08
8.5285072e-06
5.2887479e-08
3.0564403e-08
8.4484618e-06
5.0655108e-08
2.9390278e-08
8.3715848e-06
4.8587071e-08
2.8290007e-08
8.2976614e-06
4.6666165e-08
2.7257217e-08
8.2264975e-06
4.4877485e-08
2.6286438e-08
8.1579202e-06
4.320879e-08
2.5368516e-08
8.0917731e-06
4.164905e-08
2.4498039e-08
8.0279108e-06
4.0186997e-08
2.3675359e-08
7.9662006e-06
3.8812696e-08
2.2897552e-08
7.9065219e-06
3.751839e-08
2.2160247e-08
7.8487639e-06
3.6297849e-08
2.1460145e-08
7.7928242e-06
3.5145158e-08
2.0794575e-08
7.7386083e-06
3.4054668e-08
2.0161166e-08
7.6860293e-06
3.3021339e-08
1.955769e-08
7.6350062e-06
3.2040786e-08
1.8982222e-08
7.5854641e-06
3.1109071e-08
1.8433064e-08
7.537333e-06
3.0222629e-08
1.790848e-08
7.4905478e-06
2.9378236e-08
1.7406999e-08
7.4450476e-06
2.8573007e-08
1.6927178e-08
7.4007756e-06
2.7804229e-08
1.646778e-08
7.3576783e-06
2.706959e-08
1.6027644e-08
7.3157056e-06
2.636708e-08
1.5605619e-08
7.2748103e-06
2.5694667e-08
1.5200702e-08
7.2349479e-06
2.5050597e-08
1.4811842e-08
7.1960766e-06
2.4433076e-08
1.4438169e-08
7.158157e-06
2.3840697e-08
1.4078931e-08
7.1211518e-06
2.3271957e-08
1.3733261e-08
7.0850258e-06
2.2725511e-08
1.3400502e-08
7.0497456e-06
2.2200217e-08
1.3079944e-08
7.0152798e-06
2.1694899e-08
1.2770886e-08
6.9815985e-06
2.1208589e-08
1.2472776e-08
6.9486733e-06
2.0740255e-08
1.2184908e-08
6.9164775e-06
2.0288992e-08
1.190681e-08
6.8849857e-06
1.9853938e-08
1.1637838e-08
6.8541739e-06
1.9434372e-08
1.1377457e-08
6.8240193e-06
1.9029456e-08
1.1125092e-08
6.7945006e-06
1.8638464e-08
1.0880267e-08
6.7655975e-06
1.8260759e-08
1.0642294e-08
6.7372912e-06
1.7895564e-08
1.0410764e-08
6.709564e-06
1.754212e-08
1.0185113e-08
6.6823995e-06
1.7199653e-08
9.9648799e-09
6.6557824e-06
1.6867276e-08
9.749822e-09
6.6296983e-06
1.6544133e-08
9.5399894e-09
6.6041331e-06
1.6229305e-08
9.3359976e-09
6.5790714e-06
1.5921973e-08
9.1396855e-09
6.554494e-06
1.5622341e-08
8.9551111e-09
6.5303708e-06
1.5332553e-08
8.7906771e-09
6.5066467e-06
1.5060474e-08
8.6635908e-09
6.4832094e-06
1.482782e-08
8.6095111e-09
6.4598103e-06
1.4693073e-08
8.706008e-09
6.4358387e-06
1.4826406e-08
9.1451469e-09
6.4096302e-06
1.5741773e-08
1.0466738e-08
6.3782854e-06
1.8026573e-08
1.3318233e-08
3.2300208e-08
2.7923563e-08
0.00010646494
4.1872385e-06
6.4599816e-06
0.0001002019
5.695418e-06
6.6231353e-06
9.3659588e-05
5.7790389e-06
6.2744098e-06
8.7011589e-05
5.6514782e-06
6.0369387e-06
8.0422927e-05
5.366912e-06
5.7173941e-06
7.4094022e-05
4.9022832e-06
5.3063862e-06
6.8167026e-05
4.3278136e-06
4.8516272e-06
6.2722565e-05
3.717891e-06
4.387032e-06
5.7799049e-05
3.1243144e-06
3.9337144e-06
5.3403345e-05
2.5820689e-06
3.5063329e-06
4.9517402e-05
2.1121062e-06
3.1138299e-06
4.6105482e-05
1.7220197e-06
2.7597474e-06
4.3121558e-05
1.4089355e-06
2.4437429e-06
4.0515558e-05
1.1637552e-06
2.163346e-06
3.8237948e-05
9.748585e-07
1.9152336e-06
3.6242683e-05
8.3055975e-07
1.6959573e-06
3.4488759e-05
7.2043696e-07
1.5022849e-06
3.2940716e-05
6.3586297e-07
1.3313172e-06
3.1568463e-05
5.7005006e-07
1.1804931e-06
3.0346733e-05
5.1784899e-07
1.0475522e-06
2.9254398e-05
4.7545954e-07
9.3049032e-07
2.8273782e-05
4.4013959e-07
8.2752025e-07
2.7390054e-05
4.0994891e-07
7.3704008e-07
2.6590699e-05
3.8353953e-07
6.5760857e-07
2.5865102e-05
3.5998887e-07
5.8793071e-07
2.5204198e-05
3.386763e-07
5.2684261e-07
2.4600205e-05
3.1918356e-07
4.7330349e-07
2.4046429e-05
3.0120187e-07
4.2639016e-07
2.3537073e-05
2.8455202e-07
3.8526715e-07
2.3067119e-05
2.6911099e-07
3.4918241e-07
2.2632208e-05
2.5478164e-07
3.1747787e-07
2.2228528e-05
2.4147382e-07
2.8959531e-07
2.1852744e-05
2.2911073e-07
2.6504126e-07
2.1501947e-05
2.1762892e-07
2.4337254e-07
2.1173591e-05
2.0696949e-07
2.2420571e-07
2.0865444e-05
1.9707564e-07
2.0720866e-07
2.0575549e-05
1.8789254e-07
1.92094e-07
2.0302183e-05
1.7936723e-07
1.7861344e-07
2.0043829e-05
1.714491e-07
1.6655323e-07
1.979915e-05
1.6408981e-07
1.5572939e-07
1.956696e-05
1.5724382e-07
1.4598402e-07
1.934621e-05
1.5086896e-07
1.3718217e-07
1.9135969e-05
1.4492653e-07
1.292088e-07
1.8935407e-05
1.3937905e-07
1.2196305e-07
1.8743783e-05
1.3419232e-07
1.1535763e-07
1.8560435e-05
1.2933509e-07
1.0931728e-07
1.8384766e-05
1.2477911e-07
1.0377716e-07
1.8216241e-05
1.2049854e-07
9.8681274e-08
1.8054377e-05
1.1647013e-07
9.3981299e-08
1.7898734e-05
1.1267294e-07
8.9635456e-08
1.7748917e-05
1.0908823e-07
8.5607036e-08
1.7604563e-05
1.0570005e-07
8.1862406e-08
1.7465345e-05
1.024934e-07
7.837328e-08
1.7330962e-05
9.9453009e-08
7.5116984e-08
1.7201138e-05
9.6564428e-08
7.2072723e-08
1.7075619e-05
9.3816619e-08
6.9221141e-08
1.695417e-05
9.1201094e-08
6.6545162e-08
1.6836577e-05
8.8709089e-08
6.4029579e-08
1.6722638e-05
8.6331953e-08
6.1661048e-08
1.661217e-05
8.4061782e-08
5.9427707e-08
1.6505001e-05
8.1891544e-08
5.7318813e-08
1.640097e-05
7.9814953e-08
5.532482e-08
1.6299929e-05
7.7826168e-08
5.3437098e-08
1.620174e-05
7.5919863e-08
5.1647884e-08
1.6106272e-05
7.4091042e-08
4.9950105e-08
1.6013404e-05
7.2334969e-08
4.8337356e-08
1.5923022e-05
7.0647725e-08
4.6803861e-08
1.5835019e-05
6.9025762e-08
4.5344261e-08
1.5749294e-05
6.7465546e-08
4.3953697e-08
1.5665753e-05
6.5963774e-08
4.2627696e-08
1.5584307e-05
6.4517352e-08
4.1362162e-08
1.5504871e-05
6.3123396e-08
4.0153334e-08
1.5427365e-05
6.1779322e-08
3.8997792e-08
1.5351716e-05
6.048255e-08
3.7892284e-08
1.5277852e-05
5.9230811e-08
3.6833861e-08
1.5205705e-05
5.802198e-08
3.5819732e-08
1.5135212e-05
5.6853991e-08
3.4847387e-08
1.5066313e-05
5.5724968e-08
3.3914344e-08
1.499895e-05
5.4633122e-08
3.3018408e-08
1.493307e-05
5.3576709e-08
3.2157457e-08
1.4868621e-05
5.2554187e-08
3.1329418e-08
1.4805554e-05
5.156394e-08
3.0532427e-08
1.4743823e-05
5.0604479e-08
2.9764675e-08
1.4683386e-05
4.9674284e-08
2.9024371e-08
1.4624199e-05
4.8771825e-08
2.8309866e-08
1.4566226e-05
4.789546e-08
2.7619579e-08
1.4509431e-05
4.7043526e-08
2.6951997e-08
1.4453778e-05
4.6214107e-08
2.6305759e-08
1.4399237e-05
4.5405428e-08
2.5679878e-08
1.4345777e-05
4.4615713e-08
2.5073759e-08
1.4293367e-05
4.3844213e-08
2.4487734e-08
1.4241972e-05
4.3092853e-08
2.392376e-08
1.4191548e-05
4.2369922e-08
2.3387133e-08
1.4142019e-05
4.1699299e-08
2.2889633e-08
1.4093249e-05
4.1141632e-08
2.2456611e-08
1.4044951e-05
4.0844634e-08
2.2146529e-08
1.3996485e-05
4.1169173e-08
2.2123062e-08
1.3946229e-05
4.3012311e-08
2.2985433e-08
1.389015e-05
4.8540239e-08
2.5565784e-08
6.3281561e-08
5.0000904e-08
0.00010603565
2.7876425e-06
6.4750379e-06
0.00010074799
4.4145413e-06
6.5685292e-06
9.5493515e-05
4.8594028e-06
6.1741158e-06
9.0256432e-05
4.930369e-06
5.9581921e-06
8.5101366e-05
4.8311767e-06
5.6908012e-06
8.0102875e-05
4.5561761e-06
5.3445981e-06
7.5322251e-05
4.1469521e-06
4.9614853e-06
7.0803266e-05
3.6678926e-06
4.5689837e-06
6.6576264e-05
3.1701903e-06
4.1811254e-06
6.2660725e-05
2.6900109e-06
3.8075976e-06
5.9065443e-05
2.2519318e-06
3.4554566e-06
5.5788936e-05
1.8697304e-06
3.1287958e-06
5.2820978e-05
1.5477473e-06
2.8291458e-06
5.014479e-05
1.2836302e-06
2.5563139e-06
4.7739304e-05
1.07123e-06
2.3091141e-06
4.5581183e-05
9.0281505e-07
2.0858661e-06
4.3646423e-05
7.7048779e-07
1.884709e-06
4.1911533e-05
6.6697373e-07
1.7037792e-06
4.0354306e-05
5.8598197e-07
1.541295e-06
3.8954268e-05
5.2230223e-07
1.3955849e-06
3.769288e-05
4.7175607e-07
1.265091e-06
3.6553576e-05
4.3107981e-07
1.1483634e-06
3.552169e-05
3.9778205e-07
1.0440533e-06
3.4584322e-05
3.6999884e-07
9.509083e-07
3.3730181e-05
3.4635985e-07
8.6777018e-07
3.2949411e-05
3.2587761e-07
7.9356871e-07
3.2233419e-05
3.0784048e-07
7.2733488e-07
3.1574711e-05
2.9172985e-07
6.6818104e-07
3.0966769e-05
2.7719265e-07
6.153013e-07
3.0403928e-05
2.6398102e-07
5.6797022e-07
2.9881258e-05
2.5190848e-07
5.2554317e-07
2.9394455e-05
2.4082713e-07
4.8745002e-07
2.8939761e-05
2.3062161e-07
4.5318329e-07
2.8513895e-05
2.2120154e-07
4.2229387e-07
2.8113985e-05
2.124919e-07
3.9438674e-07
2.7737518e-05
2.0442794e-07
3.6911488e-07
2.7382285e-05
1.9695191e-07
3.4617383e-07
2.7046344e-05
1.9001176e-07
3.2529679e-07
2.6727982e-05
1.8355996e-07
3.0625046e-07
2.6425689e-05
1.7755274e-07
2.8883084e-07
2.6138123e-05
1.7195003e-07
2.7285984e-07
2.5864094e-05
1.6671517e-07
2.5818183e-07
2.5602546e-05
1.6181456e-07
2.4466091e-07
2.535253e-05
1.5721711e-07
2.3217763e-07
2.51132e-05
1.5289443e-07
2.2062727e-07
2.4883797e-05
1.4882096e-07
2.0991775e-07
2.4663634e-05
1.4497366e-07
1.9996814e-07
2.4452094e-05
1.4133181e-07
1.9070705e-07
2.4248615e-05
1.3787695e-07
1.8207153e-07
2.405269e-05
1.3459267e-07
1.7400573e-07
2.3863854e-05
1.3146459e-07
1.6645988e-07
2.3681684e-05
1.284806e-07
1.5938925e-07
2.3505794e-05
1.2562918e-07
1.5275411e-07
2.3335829e-05
1.2289866e-07
1.4651967e-07
2.3171462e-05
1.2027635e-07
1.4065459e-07
2.3012394e-05
1.1775472e-07
1.3513021e-07
2.2858345e-05
1.1532971e-07
1.2992045e-07
2.2709057e-05
1.1299538e-07
1.2500175e-07
2.2564291e-05
1.1074515e-07
1.2035286e-07
2.2423824e-05
1.0857344e-07
1.1595459e-07
2.2287451e-05
1.0647551e-07
1.1178925e-07
2.2154978e-05
1.0444702e-07
1.078408e-07
2.2026226e-05
1.0248419e-07
1.0409458e-07
2.1901025e-05
1.0058351e-07
1.0053715e-07
2.1779218e-05
9.8741533e-08
9.715613e-08
2.1660658e-05
9.6954888e-08
9.3940235e-08
2.1545205e-05
9.5221248e-08
9.0879045e-08
2.1432729e-05
9.3538789e-08
8.7962809e-08
2.1323107e-05
9.1905322e-08
8.5182593e-08
2.1216222e-05
9.031854e-08
8.2530178e-08
2.1111965e-05
8.8776383e-08
7.9997902e-08
2.1010233e-05
8.7277109e-08
7.7578655e-08
2.0910927e-05
8.581895e-08
7.526587e-08
2.0813956e-05
8.4400329e-08
7.3053419e-08
2.0719232e-05
8.3019682e-08
7.0935678e-08
2.0626671e-05
8.1675616e-08
6.8907196e-08
2.0536195e-05
8.0366833e-08
6.6963153e-08
2.0447729e-05
7.9091993e-08
6.5098783e-08
2.0361203e-05
7.7849854e-08
6.3309777e-08
2.0276548e-05
7.6639235e-08
6.159205e-08
2.0193702e-05
7.5459016e-08
5.9941735e-08
2.0112602e-05
7.4307959e-08
5.8355235e-08
2.0033193e-05
7.3184921e-08
5.6829059e-08
1.9955419e-05
7.208862e-08
5.5359961e-08
1.9879228e-05
7.101762e-08
5.3944855e-08
1.9804572e-05
6.9970425e-08
5.2580725e-08
1.9731406e-05
6.8945262e-08
5.1264804e-08
1.9659685e-05
6.7940116e-08
4.9994398e-08
1.9589371e-05
6.695301e-08
4.8767028e-08
1.9520423e-05
6.5982345e-08
4.758051e-08
1.9452807e-05
6.5028036e-08
4.643312e-08
1.9386482e-05
6.4094117e-08
4.5323757e-08
1.9321404e-05
6.3194691e-08
4.4253071e-08
1.9257511e-05
6.2366354e-08
4.3225213e-08
1.9194705e-05
6.1695149e-08
4.2253127e-08
1.9132798e-05
6.1374072e-08
4.1377399e-08
1.9071394e-05
6.1822435e-08
4.0750685e-08
1.9009424e-05
6.392475e-08
4.10576e-08
1.8944661e-05
6.9304668e-08
4.3998827e-08
7.9170946e-08
7.4661509e-08
0.0001054937
1.9169871e-06
6.4880406e-06
0.00010005365
3.2729596e-06
6.5816334e-06
9.4926077e-05
3.8288995e-06
6.1580776e-06
8.9946373e-05
3.9838109e-06
5.9262629e-06
8.5163276e-05
3.9595077e-06
5.6547657e-06
8.0619137e-05
3.7899368e-06
5.3103784e-06
7.6329462e-05
3.5015547e-06
4.9350725e-06
7.230016e-05
3.1412013e-06
4.5559928e-06
6.8534206e-05
2.7514802e-06
4.1846641e-06
6.5032983e-05
2.3633493e-06
3.8278853e-06
6.1795789e-05
1.9984144e-06
3.490711e-06
5.8818843e-05
1.670376e-06
3.176301e-06
5.6094718e-05
1.3858295e-06
2.886043e-06
5.3612488e-05
1.1457945e-06
2.6200649e-06
5.1358373e-05
9.4764117e-07
2.3777043e-06
4.9316593e-05
7.8676786e-07
2.1578272e-06
4.7470246e-05
6.5779547e-07
1.9590391e-06
4.5802069e-05
5.5532543e-07
1.7798252e-06
4.4295042e-05
4.7437115e-07
1.6186378e-06
4.293283e-05
4.1056667e-07
1.473948e-06
4.1700078e-05
3.6023236e-07
1.3442759e-06
4.0582591e-05
3.2035744e-07
1.2282094e-06
3.956742e-05
2.8853735e-07
1.1244154e-06
3.8642881e-05
2.6289064e-07
1.0316467e-06
3.7798527e-05
2.4196982e-07
9.48744e-07
3.7025076e-05
2.2467704e-07
8.7465171e-07
3.6314324e-05
2.10189e-07
8.084041e-07
3.5659057e-05
1.9788606e-07
7.4911042e-07
3.5052961e-05
1.8731584e-07
6.9597285e-07
3.4490519e-05
1.7814871e-07
6.4827379e-07
3.3966922e-05
1.7013171e-07
6.0537442e-07
3.3477973e-05
1.630673e-07
5.667087e-07
3.3020016e-05
1.5680298e-07
5.3177544e-07
3.2589865e-05
1.5122055e-07
5.0013242e-07
3.218474e-05
1.4622563e-07
4.7139138e-07
3.1802215e-05
1.4174073e-07
4.4521235e-07
3.1440168e-05
1.3770092e-07
4.2129811e-07
3.1096739e-05
1.3405091e-07
3.9938924e-07
3.0770297e-05
1.3074292e-07
3.7925954e-07
3.0459402e-05
1.2773516e-07
3.6071195e-07
3.0162787e-05
1.249909e-07
3.4357477e-07
2.9879325e-05
1.2247786e-07
3.2769848e-07
2.960802e-05
1.2016731e-07
3.129527e-07
2.934798e-05
1.1803378e-07
2.9922351e-07
2.9098408e-05
1.1605462e-07
2.8641136e-07
2.885859e-05
1.1420983e-07
2.7442906e-07
2.8627882e-05
1.1248193e-07
2.6319999e-07
2.8405701e-05
1.1085557e-07
2.5265685e-07
2.819152e-05
1.0931759e-07
2.4274024e-07
2.7984859e-05
1.0785648e-07
2.3339753e-07
2.7785279e-05
1.0646279e-07
2.2458211e-07
2.7592378e-05
1.0512871e-07
2.1625217e-07
2.740579e-05
1.0384735e-07
2.0837036e-07
2.7225174e-05
1.0261118e-07
2.0090361e-07
2.705022e-05
1.0140746e-07
1.9382255e-07
2.6880641e-05
1.0023383e-07
1.8710043e-07
2.6716166e-05
9.9092341e-08
1.8071224e-07
2.6556546e-05
9.7980044e-08
1.7463561e-07
2.6401548e-05
9.6892524e-08
1.6885015e-07
2.6250957e-05
9.5827095e-08
1.6333744e-07
2.610457e-05
9.4781702e-08
1.5808043e-07
2.5962199e-05
9.3754739e-08
1.530636e-07
2.5823666e-05
9.274488e-08
1.4827259e-07
2.5688804e-05
9.1751e-08
1.4369412e-07
2.5557458e-05
9.0771782e-08
1.39316e-07
2.5429481e-05
8.9805187e-08
1.3512693e-07
2.5304734e-05
8.8851445e-08
1.3111646e-07
2.5183087e-05
8.7911186e-08
1.2727466e-07
2.5064416e-05
8.6983894e-08
1.235924e-07
2.4948604e-05
8.6068889e-08
1.2006118e-07
2.4835542e-05
8.5165795e-08
1.1667303e-07
2.4725124e-05
8.4274307e-08
1.1342044e-07
2.4617252e-05
8.3394264e-08
1.1029657e-07
2.4511832e-05
8.252547e-08
1.072948e-07
2.4408775e-05
8.1667736e-08
1.0440902e-07
2.4307997e-05
8.0820971e-08
1.0163346e-07
2.4209416e-05
7.9984993e-08
9.8962654e-08
2.4112956e-05
7.9159737e-08
9.6391558e-08
2.4018546e-05
7.8345019e-08
9.391528e-08
2.3926115e-05
7.754068e-08
9.1529331e-08
2.3835598e-05
7.6746538e-08
8.9229242e-08
2.3746933e-05
7.5962357e-08
8.7011037e-08
2.366006e-05
7.5187648e-08
8.4870711e-08
2.3574922e-05
7.4421963e-08
8.280455e-08
2.3491466e-05
7.3664634e-08
8.080895e-08
2.3409641e-05
7.2914596e-08
7.8880351e-08
2.33294e-05
7.2170694e-08
7.7015501e-08
2.3250698e-05
7.1431318e-08
7.5211035e-08
2.3173492e-05
7.0694892e-08
7.3463663e-08
2.3097745e-05
6.9960233e-08
7.1770095e-08
2.3023418e-05
6.9227981e-08
7.0127032e-08
2.2950477e-05
6.8503521e-08
6.85312e-08
2.2878889e-05
6.7802904e-08
6.6979719e-08
2.2808619e-05
6.7165086e-08
6.5471588e-08
2.2739625e-05
6.6675261e-08
6.4013355e-08
2.267185e-05
6.6507064e-08
6.2642336e-08
2.2605149e-05
6.6990739e-08
6.1532385e-08
2.2538888e-05
6.8686044e-08
6.1499901e-08
2.2471121e-05
7.2226985e-08
6.4845112e-08
7.672281e-08
9.8461312e-08
0.0001051979
1.3340885e-06
6.4961221e-06
9.9496561e-05
2.3731022e-06
6.6011947e-06
9.4262459e-05
2.9019223e-06
6.1610799e-06
8.9251186e-05
3.0856641e-06
5.9094196e-06
8.4493498e-05
3.0947347e-06
5.6224614e-06
8.0033635e-05
2.9846657e-06
5.265134e-06
7.5876907e-05
2.7790155e-06
4.8792667e-06
7.2014635e-05
2.5106844e-06
4.4927895e-06
6.8436293e-05
2.2128728e-06
4.1169489e-06
6.5131387e-05
1.9107259e-06
3.7575292e-06
6.208941e-05
1.6217321e-06
3.4186596e-06
5.9299432e-05
1.3573877e-06
3.1029661e-06
5.6749589e-05
1.1240344e-06
2.8116387e-06
5.4426788e-05
9.2377947e-07
2.5448158e-06
5.2316754e-05
7.5572798e-07
2.3019466e-06
5.0404313e-05
6.1717852e-07
2.0820302e-06
4.8673788e-05
5.0454349e-07
1.8837772e-06
4.7109414e-05
4.139718e-07
1.7057274e-06
4.5695713e-05
3.417365e-07
1.5463363e-06
4.4417792e-05
2.8445144e-07
1.4040359e-06
4.3261575e-05
2.3917113e-07
1.277278e-06
4.2213952e-05
2.0341503e-07
1.1645652e-06
4.1262871e-05
1.7514741e-07
1.0644718e-06
4.039737e-05
1.5273231e-07
9.7565897e-07
3.9607583e-05
1.3487529e-07
8.9688144e-07
3.8884688e-05
1.2055566e-07
8.2701639e-07
3.8220848e-05
1.0901091e-07
7.6501853e-07
3.7609155e-05
9.9633809e-08
7.0994483e-07
3.7043542e-05
9.1977444e-08
6.6095087e-07
3.6518702e-05
8.5705828e-08
6.1728289e-07
3.6030009e-05
8.0552376e-08
5.782731e-07
3.5573433e-05
7.6308304e-08
5.4333416e-07
3.5145475e-05
7.2811276e-08
5.119503e-07
3.4743091e-05
6.9934118e-08
4.8367023e-07
3.4363641e-05
6.7575429e-08
4.5810066e-07
3.4004828e-05
6.5652908e-08
4.3490001e-07
3.3664659e-05
6.4098594e-08
4.1377213e-07
3.3341393e-05
6.2855923e-08
3.9446095e-07
3.3033513e-05
6.1877026e-08
3.7674528e-07
3.2739693e-05
6.1121111e-08
3.6043424e-07
3.2458768e-05
6.0553076e-08
3.4536328e-07
3.2189712e-05
6.0142661e-08
3.3139054e-07
3.1931622e-05
5.9863665e-08
3.1839377e-07
3.1683696e-05
5.9693154e-08
3.0626736e-07
3.1445219e-05
5.9611213e-08
2.9492011e-07
3.1215555e-05
5.9600631e-08
2.8427316e-07
3.0994132e-05
5.9646509e-08
2.7425804e-07
3.0780436e-05
5.9736154e-08
2.6481539e-07
3.0574002e-05
5.9858652e-08
2.5589335e-07
3.0374407e-05
6.0004923e-08
2.4744664e-07
3.0181267e-05
6.0167637e-08
2.3943549e-07
2.9994229e-05
6.0341242e-08
2.3182489e-07
2.9812971e-05
6.0521837e-08
2.2458377e-07
2.9637193e-05
6.0704469e-08
2.1768456e-07
2.9466629e-05
6.0867287e-08
2.1110455e-07
2.9301024e-05
6.1017007e-08
2.0482179e-07
2.914014e-05
6.116088e-08
1.9881571e-07
2.8983756e-05
6.1294949e-08
1.9306839e-07
2.8831669e-05
6.1415467e-08
1.8756388e-07
2.8683688e-05
6.1520959e-08
1.8228766e-07
2.8539633e-05
6.1610573e-08
1.7722634e-07
2.8399336e-05
6.1683778e-08
1.7236782e-07
2.8262639e-05
6.1740468e-08
1.677009e-07
2.8129394e-05
6.1780674e-08
1.632152e-07
2.7999461e-05
6.1803884e-08
1.5890121e-07
2.7872709e-05
6.1807334e-08
1.5475034e-07
2.7749012e-05
6.1793556e-08
1.5075443e-07
2.7628253e-05
6.1764817e-08
1.4690557e-07
2.7510319e-05
6.1721001e-08
1.4319663e-07
2.7395105e-05
6.1662086e-08
1.3962084e-07
2.728251e-05
6.1588592e-08
1.3617199e-07
2.7172439e-05
6.1501037e-08
1.3284418e-07
2.7064802e-05
6.139996e-08
1.2963195e-07
2.6959511e-05
6.1285913e-08
1.2652995e-07
2.6856486e-05
6.1159507e-08
1.2353327e-07
2.6755649e-05
6.1021295e-08
1.2063731e-07
2.6656924e-05
6.0871862e-08
1.178377e-07
2.6560242e-05
6.0711701e-08
1.1513015e-07
2.6465535e-05
6.0541381e-08
1.125108e-07
2.6372738e-05
6.0361344e-08
1.0997581e-07
2.6281791e-05
6.0171962e-08
1.0752159e-07
2.6192636e-05
5.9973557e-08
1.0514471e-07
2.6105215e-05
5.9766314e-08
1.0284181e-07
2.6019477e-05
5.9550257e-08
1.0060973e-07
2.5935371e-05
5.9325144e-08
9.8445274e-08
2.585285e-05
5.9090469e-08
9.6345353e-08
2.5771868e-05
5.884545e-08
9.4306938e-08
2.5692384e-05
5.8589018e-08
9.2326754e-08
2.5614357e-05
5.8319783e-08
9.0401449e-08
2.5537753e-05
5.8037081e-08
8.852733e-08
2.5462539e-05
5.774164e-08
8.6700238e-08
2.5388689e-05
5.7438433e-08
8.4915182e-08
2.5316184e-05
5.714144e-08
8.3166634e-08
2.5245017e-05
5.6882592e-08
8.1449647e-08
2.51752e-05
5.6726036e-08
7.9765836e-08
2.510677e-05
5.6787902e-08
7.8149211e-08
2.5039729e-05
5.7251589e-08
7.6781e-08
2.4973573e-05
5.8330952e-08
7.6510232e-08
2.4906079e-05
5.9989488e-08
7.9732149e-08
6.0715009e-08
1.1287823e-07
0.00010503672
9.0789372e-07
6.5005614e-06
9.9140653e-05
1.6524914e-06
6.6166801e-06
9.3788329e-05
2.0825242e-06
6.1717217e-06
8.8708526e-05
2.2549373e-06
5.91053e-06
8.3909682e-05
2.278404e-06
5.6151748e-06
7.9437109e-05
2.2074821e-06
5.2497564e-06
7.5296201e-05
2.0645348e-06
4.8553893e-06
7.1474034e-05
1.8722543e-06
4.4605969e-06
6.7955013e-05
1.6547667e-06
4.0771269e-06
6.4723621e-05
1.4313505e-06
3.7107669e-06
6.1764423e-05
1.2154297e-06
3.3655007e-06
5.9062056e-05
1.015864e-06
3.0438911e-06
5.6601108e-05
8.3782743e-07
2.7471548e-06
5.4365944e-05
6.8344645e-07
2.475497e-06
5.2340648e-05
5.5258526e-07
2.2284383e-06
5.0509125e-05
4.4366547e-07
2.0050361e-06
4.8855299e-05
3.5433456e-07
1.8040352e-06
4.7363353e-05
2.8193586e-07
1.6239821e-06
4.6017963e-05
2.2381346e-07
1.4633127e-06
4.4804503e-05
1.774938e-07
1.3204181e-06
4.3709199e-05
1.4078086e-07
1.1936935e-06
4.2719248e-05
1.1179153e-07
1.0815749e-06
4.1822875e-05
8.8954541e-08
9.8256582e-07
4.1009364e-05
7.0988003e-08
8.9525471e-07
4.0269054e-05
5.6861865e-08
8.1832382e-07
3.9593306e-05
4.5719157e-08
7.5058476e-07
3.8974405e-05
3.697786e-08
6.9093435e-07
3.8405585e-05
3.0067379e-08
6.3838626e-07
3.7880869e-05
2.4650859e-08
5.920424e-07
3.7395029e-05
2.044e-08
5.5110606e-07
3.6943514e-05
1.7190301e-08
5.1487717e-07
3.6522366e-05
1.4716745e-08
4.8273959e-07
3.6128148e-05
1.2874778e-08
4.5415391e-07
3.5757883e-05
1.1549896e-08
4.2864943e-07
3.5408991e-05
1.0650784e-08
4.0581704e-07
3.5079238e-05
1.0103613e-08
3.853023e-07
3.4766689e-05
9.848282e-09
3.6679879e-07
3.4469668e-05
9.8351058e-09
3.5004234e-07
3.4186716e-05
1.0022923e-08
3.3480553e-07
3.3916567e-05
1.0377017e-08
3.2089286e-07
3.3658116e-05
1.0868056e-08
3.0813658e-07
3.3410395e-05
1.1470955e-08
2.9639283e-07
3.3172556e-05
1.2164228e-08
2.8553827e-07
3.2943853e-05
1.2929303e-08
2.754672e-07
3.2723625e-05
1.3750171e-08
2.6608897e-07
3.2511286e-05
1.4613067e-08
2.5732571e-07
3.2306316e-05
1.5506244e-08
2.4911067e-07
3.2108246e-05
1.6419585e-08
2.4138624e-07
3.1916658e-05
1.7344623e-08
2.341027e-07
3.1731171e-05
1.8274309e-08
2.2721711e-07
3.1551444e-05
1.9203175e-08
2.2069213e-07
3.1377162e-05
2.0127732e-08
2.1449509e-07
3.1208038e-05
2.1048644e-08
2.0859681e-07
3.10438e-05
2.1972803e-08
2.0297054e-07
3.0884232e-05
2.2827886e-08
1.9760738e-07
3.0729103e-05
2.3662981e-08
1.9248225e-07
3.05782e-05
2.4490026e-08
1.8757379e-07
3.0431331e-05
2.5296297e-08
1.8286762e-07
3.0288318e-05
2.6077982e-08
1.7835076e-07
3.0148994e-05
2.6834307e-08
1.7401106e-07
3.0013202e-05
2.7564707e-08
1.6983752e-07
2.9880797e-05
2.8268969e-08
1.6582023e-07
2.975164e-05
2.8947423e-08
1.6195014e-07
2.9625601e-05
2.9600739e-08
1.5821897e-07
2.9502557e-05
3.0228523e-08
1.5461917e-07
2.9382396e-05
3.0823558e-08
1.5114462e-07
2.9265007e-05
3.1393128e-08
1.4778873e-07
2.9150287e-05
3.1939606e-08
1.4454537e-07
2.9038137e-05
3.2461881e-08
1.4140901e-07
2.8928465e-05
3.2960034e-08
1.3837461e-07
2.8821181e-05
3.3434696e-08
1.354375e-07
2.8716203e-05
3.3886336e-08
1.3259331e-07
2.8613449e-05
3.4315545e-08
1.2983789e-07
2.8512845e-05
3.4722865e-08
1.2716738e-07
2.8414317e-05
3.5108963e-08
1.2457817e-07
2.8317797e-05
3.5474465e-08
1.2206682e-07
2.8223219e-05
3.5819901e-08
1.196301e-07
2.813052e-05
3.6145922e-08
1.1726492e-07
2.803964e-05
3.6453062e-08
1.149684e-07
2.7950522e-05
3.6741877e-08
1.1273773e-07
2.7863111e-05
3.7012813e-08
1.1057028e-07
2.7777355e-05
3.7266254e-08
1.0846345e-07
2.7693204e-05
3.7502471e-08
1.0641475e-07
2.761061e-05
3.7721595e-08
1.0442175e-07
2.752953e-05
3.7923552e-08
1.0248199e-07
2.744992e-05
3.810797e-08
1.0059305e-07
2.7371738e-05
3.8274274e-08
9.8752266e-08
2.7294949e-05
3.8421537e-08
9.6956906e-08
2.7219516e-05
3.8548736e-08
9.5203625e-08
2.714541e-05
3.8655126e-08
9.3488603e-08
2.7072603e-05
3.8741147e-08
9.1806963e-08
2.7001079e-05
3.8810267e-08
9.0152306e-08
2.6930832e-05
3.8872149e-08
8.8516557e-08
2.6861876e-05
3.8947425e-08
8.6890534e-08
2.679426e-05
3.9073514e-08
8.5269199e-08
2.6728065e-05
3.9306952e-08
8.3675946e-08
2.6663337e-05
3.9708354e-08
8.2271187e-08
2.659956e-05
4.0272016e-08
8.1836165e-08
2.6534295e-05
4.0698003e-08
8.4555714e-08
3.9620818e-08
1.1507131e-07
0.00010494757
5.6811081e-07
6.5033076e-06
9.8925416e-05
1.0462983e-06
6.6283517e-06
9.3480449e-05
1.3439844e-06
6.1835065e-06
8.8341777e-05
1.4751323e-06
5.9184763e-06
8.3502084e-05
1.4993911e-06
5.6187065e-06
7.9004057e-05
1.4572411e-06
5.2482679e-06
7.4853978e-05
1.3667382e-06
4.8478757e-06
7.1037378e-05
1.2423973e-06
4.4464569e-06
6.7536063e-05
1.0997693e-06
4.0563127e-06
6.4331998e-05
9.5192359e-07
3.683491e-06
6.1407318e-05
8.0805756e-07
3.3320524e-06
5.8744339e-05
6.7422203e-07
3.0046209e-06
5.6325632e-05
5.5404396e-07
2.7024907e-06
5.4133973e-05
4.4916746e-07
2.4259383e-06
5.2152298e-05
3.5972399e-07
2.174536e-06
5.0363747e-05
2.8484511e-07
1.9473717e-06
4.875178e-05
2.2310001e-07
1.7432015e-06
4.7300339e-05
1.7281166e-07
1.5605647e-06
4.5994012e-05
1.3226572e-07
1.3978747e-06
4.4818177e-05
9.9840027e-08
1.2534891e-06
4.3759121e-05
7.4075612e-08
1.1257614e-06
4.2804123e-05
5.3707611e-08
1.0130814e-06
4.1941503e-05
3.7671215e-08
9.1390375e-07
4.1160627e-05
2.509649e-08
8.2676734e-07
4.0451891e-05
1.5294181e-08
7.503039e-07
3.980679e-05
7.5281732e-09
6.8329173e-07
3.9217543e-05
1.6727696e-09
6.2455203e-07
3.8677513e-05
-3.0330983e-09
5.731308e-07
3.8180739e-05
-6.6486549e-09
5.2807354e-07
3.7722004e-05
-9.359453e-09
4.8853451e-07
3.7296777e-05
-1.1371785e-08
4.5378927e-07
3.6901112e-05
-1.2818248e-08
4.2319914e-07
3.6531588e-05
-1.3805295e-08
3.962048e-07
3.6185236e-05
-1.441747e-08
3.7231876e-07
3.5859491e-05
-1.4721899e-08
3.5111775e-07
3.5552132e-05
-1.4772651e-08
3.3223578e-07
3.5261237e-05
-1.4613934e-08
3.1535726e-07
3.4985143e-05
-1.4282171e-08
3.0021088e-07
3.472241e-05
-1.3807691e-08
2.8656375e-07
3.4471787e-05
-1.3215886e-08
2.7421632e-07
3.4232185e-05
-1.2528157e-08
2.6299769e-07
3.4002657e-05
-1.176279e-08
2.5276173e-07
3.3782373e-05
-1.093525e-08
2.4338336e-07
3.3570606e-05
-1.0058779e-08
2.3475554e-07
3.3366714e-05
-9.1447501e-09
2.2678673e-07
3.3170131e-05
-8.2028394e-09
2.1939834e-07
3.2980356e-05
-7.2412391e-09
2.12523e-07
3.279694e-05
-6.2668956e-09
2.0610281e-07
3.2619482e-05
-5.2855707e-09
2.0008785e-07
3.2447623e-05
-4.3018179e-09
1.9443479e-07
3.228104e-05
-3.3190527e-09
1.8910586e-07
3.2119438e-05
-2.3382935e-09
1.8406734e-07
3.1962554e-05
-1.3530388e-09
1.7928646e-07
3.1810075e-05
-2.7629284e-10
1.7472765e-07
3.1661878e-05
5.8586539e-10
1.7043906e-07
3.1517732e-05
1.4356298e-09
1.6637293e-07
3.1377429e-05
2.3038187e-09
1.6248959e-07
3.1240792e-05
3.1586363e-09
1.5877483e-07
3.1107656e-05
3.9969832e-09
1.5521719e-07
3.0977867e-05
4.8171685e-09
1.5180548e-07
3.0851284e-05
5.6179701e-09
1.4852967e-07
3.0727774e-05
6.3990315e-09
1.4538079e-07
3.0607209e-05
7.1609024e-09
1.4235055e-07
3.0489473e-05
7.9059205e-09
1.3943121e-07
3.037445e-05
8.6357612e-09
1.3661579e-07
3.0262049e-05
9.3206491e-09
1.3390399e-07
3.0152163e-05
9.9937939e-09
1.3128565e-07
3.0044697e-05
1.065038e-08
1.2875512e-07
2.9939564e-05
1.1286709e-08
1.2630829e-07
2.983668e-05
1.1903199e-08
1.2394088e-07
2.9735965e-05
1.2500148e-08
1.2164887e-07
2.9637345e-05
1.3077867e-08
1.1942844e-07
2.9540748e-05
1.3636685e-08
1.1727617e-07
2.9446105e-05
1.4177011e-08
1.1518881e-07
2.9353352e-05
1.4699161e-08
1.1316339e-07
2.9262425e-05
1.5203529e-08
1.1119699e-07
2.9173268e-05
1.5690458e-08
1.0928708e-07
2.9085822e-05
1.6160373e-08
1.0743108e-07
2.9000035e-05
1.6613576e-08
1.0562662e-07
2.8915855e-05
1.7050395e-08
1.038715e-07
2.8833233e-05
1.7471121e-08
1.0216361e-07
2.8752123e-05
1.7875941e-08
1.005008e-07
2.8672479e-05
1.826507e-08
9.8881111e-08
2.8594259e-05
1.8638569e-08
9.7302485e-08
2.8517424e-05
1.8996201e-08
9.5762937e-08
2.8441934e-05
1.933782e-08
9.4260321e-08
2.8367753e-05
1.9662779e-08
9.2792325e-08
2.8294848e-05
1.9970452e-08
9.1356241e-08
2.8223187e-05
2.0259997e-08
8.9948867e-08
2.8152746e-05
2.0530712e-08
8.856592e-08
2.8083503e-05
2.0782614e-08
8.7201801e-08
2.8015447e-05
2.1017521e-08
8.5848701e-08
2.7948582e-05
2.1240701e-08
8.449583e-08
2.7882937e-05
2.146271e-08
8.3129513e-08
2.7818574e-05
2.1699973e-08
8.1736535e-08
2.7755588e-05
2.196927e-08
8.0324328e-08
2.7694014e-05
2.2266184e-08
7.9016075e-08
2.7633299e-05
2.2506268e-08
7.8480638e-08
2.7571004e-05
2.2393427e-08
8.0599474e-08
2.0993124e-08
1.0779946e-07
0.00010489986
2.7443377e-07
6.5049155e-06
9.8802772e-05
5.0716633e-07
6.6362236e-06
9.329591e-05
6.5854975e-07
6.1922972e-06
8.8116302e-05
7.2902547e-07
5.9257148e-06
8.3248198e-05
7.4378814e-07