/*--------------------------------*- C++ -*----------------------------------*\
  =========                 |
  \\      /  F ield         | OpenFOAM: The Open Source CFD Toolbox
   \\    /   O peration     | Website:  https://openfoam.org
    \\  /    A nd           | Version:  7
     \\/     M anipulation  |
\*---------------------------------------------------------------------------*/
FoamFile
{
    version     2.0;
    format      ascii;
    class       volScalarField;
    location    "2550/water";
    object      p;
}
// * * * * * * * * * * * * * * * * * * * * * * * * * * * * * * * * * * * * * //

dimensions      [1 -1 -2 0 0 0 0];

internalField   nonuniform List<scalar> 
54000
(
100278.04
100278.03
100278.02
100278.02
100278.02
100278.01
100278.01
100278.01
100278.01
100278.01
100278
100278
100278
100278
100278
100278
100278
100278
100277.99
100277.99
100277.99
100277.99
100277.99
100277.99
100277.99
100277.99
100277.99
100277.99
100277.99
100277.99
100277.98
100277.98
100277.98
100277.98
100277.98
100277.98
100277.98
100277.98
100277.98
100277.98
100277.98
100277.98
100277.98
100277.98
100277.98
100277.98
100277.97
100277.97
100277.97
100277.97
100277.97
100277.97
100277.97
100277.97
100277.97
100277.97
100277.97
100277.97
100277.97
100277.97
100277.97
100277.97
100277.97
100277.97
100277.97
100277.97
100277.96
100277.96
100277.96
100277.96
100277.96
100277.96
100277.96
100277.96
100277.96
100277.96
100277.96
100277.96
100277.96
100277.96
100277.96
100277.96
100277.96
100277.96
100277.96
100277.96
100277.96
100277.96
100277.95
100277.95
100277.95
100277.95
100277.95
100277.95
100277.95
100277.95
100277.95
100277.95
100277.95
100277.95
100245.33
100245.32
100245.32
100245.32
100245.32
100245.31
100245.31
100245.31
100245.31
100245.31
100245.3
100245.3
100245.3
100245.3
100245.3
100245.3
100245.3
100245.3
100245.29
100245.29
100245.29
100245.29
100245.29
100245.29
100245.29
100245.29
100245.29
100245.29
100245.29
100245.29
100245.28
100245.28
100245.28
100245.28
100245.28
100245.28
100245.28
100245.28
100245.28
100245.28
100245.28
100245.28
100245.28
100245.28
100245.28
100245.28
100245.27
100245.27
100245.27
100245.27
100245.27
100245.27
100245.27
100245.27
100245.27
100245.27
100245.27
100245.27
100245.27
100245.27
100245.27
100245.27
100245.27
100245.27
100245.27
100245.27
100245.26
100245.26
100245.26
100245.26
100245.26
100245.26
100245.26
100245.26
100245.26
100245.26
100245.26
100245.26
100245.26
100245.26
100245.26
100245.26
100245.26
100245.26
100245.26
100245.26
100245.26
100245.26
100245.25
100245.25
100245.25
100245.25
100245.25
100245.25
100245.25
100245.25
100245.25
100245.25
100245.25
100245.25
100212.63
100212.62
100212.62
100212.62
100212.61
100212.61
100212.61
100212.61
100212.61
100212.61
100212.6
100212.6
100212.6
100212.6
100212.6
100212.6
100212.6
100212.6
100212.59
100212.59
100212.59
100212.59
100212.59
100212.59
100212.59
100212.59
100212.59
100212.59
100212.59
100212.59
100212.58
100212.58
100212.58
100212.58
100212.58
100212.58
100212.58
100212.58
100212.58
100212.58
100212.58
100212.58
100212.58
100212.58
100212.58
100212.58
100212.57
100212.57
100212.57
100212.57
100212.57
100212.57
100212.57
100212.57
100212.57
100212.57
100212.57
100212.57
100212.57
100212.57
100212.57
100212.57
100212.57
100212.57
100212.57
100212.57
100212.56
100212.56
100212.56
100212.56
100212.56
100212.56
100212.56
100212.56
100212.56
100212.56
100212.56
100212.56
100212.56
100212.56
100212.56
100212.56
100212.56
100212.56
100212.56
100212.56
100212.56
100212.56
100212.55
100212.55
100212.55
100212.55
100212.55
100212.55
100212.55
100212.55
100212.55
100212.55
100212.55
100212.55
100179.93
100179.92
100179.92
100179.92
100179.91
100179.91
100179.91
100179.91
100179.91
100179.91
100179.9
100179.9
100179.9
100179.9
100179.9
100179.9
100179.9
100179.9
100179.89
100179.89
100179.89
100179.89
100179.89
100179.89
100179.89
100179.89
100179.89
100179.89
100179.89
100179.89
100179.88
100179.88
100179.88
100179.88
100179.88
100179.88
100179.88
100179.88
100179.88
100179.88
100179.88
100179.88
100179.88
100179.88
100179.88
100179.88
100179.87
100179.87
100179.87
100179.87
100179.87
100179.87
100179.87
100179.87
100179.87
100179.87
100179.87
100179.87
100179.87
100179.87
100179.87
100179.87
100179.87
100179.87
100179.87
100179.87
100179.86
100179.86
100179.86
100179.86
100179.86
100179.86
100179.86
100179.86
100179.86
100179.86
100179.86
100179.86
100179.86
100179.86
100179.86
100179.86
100179.86
100179.86
100179.86
100179.86
100179.86
100179.86
100179.85
100179.85
100179.85
100179.85
100179.85
100179.85
100179.85
100179.85
100179.85
100179.85
100179.85
100179.85
100147.23
100147.22
100147.22
100147.22
100147.21
100147.21
100147.21
100147.21
100147.21
100147.21
100147.2
100147.2
100147.2
100147.2
100147.2
100147.2
100147.2
100147.2
100147.19
100147.19
100147.19
100147.19
100147.19
100147.19
100147.19
100147.19
100147.19
100147.19
100147.19
100147.19
100147.18
100147.18
100147.18
100147.18
100147.18
100147.18
100147.18
100147.18
100147.18
100147.18
100147.18
100147.18
100147.18
100147.18
100147.18
100147.18
100147.17
100147.17
100147.17
100147.17
100147.17
100147.17
100147.17
100147.17
100147.17
100147.17
100147.17
100147.17
100147.17
100147.17
100147.17
100147.17
100147.17
100147.17
100147.17
100147.17
100147.16
100147.16
100147.16
100147.16
100147.16
100147.16
100147.16
100147.16
100147.16
100147.16
100147.16
100147.16
100147.16
100147.16
100147.16
100147.16
100147.16
100147.16
100147.16
100147.16
100147.16
100147.16
100147.15
100147.15
100147.15
100147.15
100147.15
100147.15
100147.15
100147.15
100147.15
100147.15
100147.15
100147.15
100114.53
100114.52
100114.52
100114.52
100114.51
100114.51
100114.51
100114.51
100114.51
100114.51
100114.5
100114.5
100114.5
100114.5
100114.5
100114.5
100114.5
100114.5
100114.49
100114.49
100114.49
100114.49
100114.49
100114.49
100114.49
100114.49
100114.49
100114.49
100114.49
100114.49
100114.48
100114.48
100114.48
100114.48
100114.48
100114.48
100114.48
100114.48
100114.48
100114.48
100114.48
100114.48
100114.48
100114.48
100114.48
100114.48
100114.47
100114.47
100114.47
100114.47
100114.47
100114.47
100114.47
100114.47
100114.47
100114.47
100114.47
100114.47
100114.47
100114.47
100114.47
100114.47
100114.47
100114.47
100114.47
100114.47
100114.46
100114.46
100114.46
100114.46
100114.46
100114.46
100114.46
100114.46
100114.46
100114.46
100114.46
100114.46
100114.46
100114.46
100114.46
100114.46
100114.46
100114.46
100114.46
100114.46
100114.46
100114.46
100114.45
100114.45
100114.45
100114.45
100114.45
100114.45
100114.45
100114.45
100114.45
100114.45
100114.45
100114.45
100081.83
100081.82
100081.82
100081.82
100081.81
100081.81
100081.81
100081.81
100081.81
100081.81
100081.8
100081.8
100081.8
100081.8
100081.8
100081.8
100081.8
100081.8
100081.79
100081.79
100081.79
100081.79
100081.79
100081.79
100081.79
100081.79
100081.79
100081.79
100081.79
100081.79
100081.78
100081.78
100081.78
100081.78
100081.78
100081.78
100081.78
100081.78
100081.78
100081.78
100081.78
100081.78
100081.78
100081.78
100081.78
100081.78
100081.77
100081.77
100081.77
100081.77
100081.77
100081.77
100081.77
100081.77
100081.77
100081.77
100081.77
100081.77
100081.77
100081.77
100081.77
100081.77
100081.77
100081.77
100081.77
100081.77
100081.76
100081.76
100081.76
100081.76
100081.76
100081.76
100081.76
100081.76
100081.76
100081.76
100081.76
100081.76
100081.76
100081.76
100081.76
100081.76
100081.76
100081.76
100081.76
100081.76
100081.76
100081.76
100081.75
100081.75
100081.75
100081.75
100081.75
100081.75
100081.75
100081.75
100081.75
100081.75
100081.75
100081.75
100049.13
100049.12
100049.12
100049.12
100049.11
100049.11
100049.11
100049.11
100049.11
100049.11
100049.1
100049.1
100049.1
100049.1
100049.1
100049.1
100049.1
100049.1
100049.09
100049.09
100049.09
100049.09
100049.09
100049.09
100049.09
100049.09
100049.09
100049.09
100049.09
100049.09
100049.08
100049.08
100049.08
100049.08
100049.08
100049.08
100049.08
100049.08
100049.08
100049.08
100049.08
100049.08
100049.08
100049.08
100049.08
100049.08
100049.07
100049.07
100049.07
100049.07
100049.07
100049.07
100049.07
100049.07
100049.07
100049.07
100049.07
100049.07
100049.07
100049.07
100049.07
100049.07
100049.07
100049.07
100049.07
100049.07
100049.06
100049.06
100049.06
100049.06
100049.06
100049.06
100049.06
100049.06
100049.06
100049.06
100049.06
100049.06
100049.06
100049.06
100049.06
100049.06
100049.06
100049.06
100049.06
100049.06
100049.06
100049.06
100049.05
100049.05
100049.05
100049.05
100049.05
100049.05
100049.05
100049.05
100049.05
100049.05
100049.05
100049.05
100016.43
100016.42
100016.42
100016.42
100016.41
100016.41
100016.41
100016.41
100016.41
100016.41
100016.4
100016.4
100016.4
100016.4
100016.4
100016.4
100016.4
100016.4
100016.39
100016.39
100016.39
100016.39
100016.39
100016.39
100016.39
100016.39
100016.39
100016.39
100016.39
100016.39
100016.38
100016.38
100016.38
100016.38
100016.38
100016.38
100016.38
100016.38
100016.38
100016.38
100016.38
100016.38
100016.38
100016.38
100016.38
100016.38
100016.37
100016.37
100016.37
100016.37
100016.37
100016.37
100016.37
100016.37
100016.37
100016.37
100016.37
100016.37
100016.37
100016.37
100016.37
100016.37
100016.37
100016.37
100016.37
100016.37
100016.36
100016.36
100016.36
100016.36
100016.36
100016.36
100016.36
100016.36
100016.36
100016.36
100016.36
100016.36
100016.36
100016.36
100016.36
100016.36
100016.36
100016.36
100016.36
100016.36
100016.36
100016.36
100016.35
100016.35
100016.35
100016.35
100016.35
100016.35
100016.35
100016.35
100016.35
100016.35
100016.35
100016.35
99983.727
99983.722
99983.718
99983.716
99983.715
99983.713
99983.711
99983.709
99983.707
99983.706
99983.704
99983.703
99983.702
99983.7
99983.699
99983.698
99983.697
99983.696
99983.695
99983.694
99983.693
99983.692
99983.691
99983.69
99983.689
99983.688
99983.688
99983.687
99983.686
99983.685
99983.685
99983.684
99983.683
99983.683
99983.682
99983.681
99983.681
99983.68
99983.68
99983.679
99983.678
99983.678
99983.677
99983.677
99983.676
99983.675
99983.675
99983.674
99983.674
99983.673
99983.673
99983.672
99983.672
99983.671
99983.671
99983.67
99983.67
99983.669
99983.669
99983.668
99983.668
99983.667
99983.667
99983.666
99983.666
99983.665
99983.665
99983.664
99983.664
99983.663
99983.663
99983.662
99983.662
99983.661
99983.661
99983.66
99983.66
99983.66
99983.659
99983.659
99983.658
99983.658
99983.657
99983.657
99983.656
99983.656
99983.656
99983.655
99983.655
99983.654
99983.654
99983.654
99983.653
99983.653
99983.652
99983.652
99983.651
99983.651
99983.651
99983.65
99951.027
99951.022
99951.018
99951.016
99951.015
99951.013
99951.011
99951.009
99951.007
99951.006
99951.004
99951.003
99951.002
99951
99950.999
99950.998
99950.997
99950.996
99950.995
99950.994
99950.993
99950.992
99950.991
99950.99
99950.989
99950.988
99950.988
99950.987
99950.986
99950.985
99950.985
99950.984
99950.983
99950.983
99950.982
99950.981
99950.981
99950.98
99950.98
99950.979
99950.978
99950.978
99950.977
99950.977
99950.976
99950.975
99950.975
99950.974
99950.974
99950.973
99950.973
99950.972
99950.972
99950.971
99950.971
99950.97
99950.97
99950.969
99950.969
99950.968
99950.968
99950.967
99950.967
99950.966
99950.966
99950.965
99950.965
99950.964
99950.964
99950.963
99950.963
99950.962
99950.962
99950.961
99950.961
99950.96
99950.96
99950.96
99950.959
99950.959
99950.958
99950.958
99950.957
99950.957
99950.956
99950.956
99950.956
99950.955
99950.955
99950.954
99950.954
99950.954
99950.953
99950.953
99950.952
99950.952
99950.951
99950.951
99950.951
99950.95
99918.327
99918.322
99918.319
99918.316
99918.315
99918.313
99918.311
99918.309
99918.307
99918.306
99918.304
99918.303
99918.302
99918.3
99918.299
99918.298
99918.297
99918.296
99918.295
99918.294
99918.293
99918.292
99918.291
99918.29
99918.289
99918.288
99918.288
99918.287
99918.286
99918.285
99918.285
99918.284
99918.283
99918.283
99918.282
99918.281
99918.281
99918.28
99918.28
99918.279
99918.278
99918.278
99918.277
99918.277
99918.276
99918.275
99918.275
99918.274
99918.274
99918.273
99918.273
99918.272
99918.272
99918.271
99918.271
99918.27
99918.27
99918.269
99918.269
99918.268
99918.268
99918.267
99918.267
99918.266
99918.266
99918.265
99918.265
99918.264
99918.264
99918.263
99918.263
99918.262
99918.262
99918.261
99918.261
99918.26
99918.26
99918.26
99918.259
99918.259
99918.258
99918.258
99918.257
99918.257
99918.256
99918.256
99918.256
99918.255
99918.255
99918.254
99918.254
99918.253
99918.253
99918.253
99918.252
99918.252
99918.251
99918.251
99918.251
99918.25
99885.627
99885.622
99885.619
99885.617
99885.615
99885.613
99885.611
99885.609
99885.607
99885.606
99885.604
99885.603
99885.601
99885.6
99885.599
99885.598
99885.597
99885.596
99885.595
99885.594
99885.593
99885.592
99885.591
99885.59
99885.589
99885.588
99885.588
99885.587
99885.586
99885.585
99885.585
99885.584
99885.583
99885.583
99885.582
99885.581
99885.581
99885.58
99885.58
99885.579
99885.578
99885.578
99885.577
99885.577
99885.576
99885.575
99885.575
99885.574
99885.574
99885.573
99885.573
99885.572
99885.572
99885.571
99885.571
99885.57
99885.57
99885.569
99885.569
99885.568
99885.568
99885.567
99885.567
99885.566
99885.566
99885.565
99885.565
99885.564
99885.564
99885.563
99885.563
99885.562
99885.562
99885.561
99885.561
99885.56
99885.56
99885.56
99885.559
99885.559
99885.558
99885.558
99885.557
99885.557
99885.556
99885.556
99885.556
99885.555
99885.555
99885.554
99885.554
99885.554
99885.553
99885.553
99885.552
99885.552
99885.551
99885.551
99885.551
99885.55
99852.928
99852.923
99852.919
99852.917
99852.915
99852.913
99852.911
99852.909
99852.907
99852.906
99852.904
99852.903
99852.901
99852.9
99852.899
99852.898
99852.897
99852.896
99852.894
99852.894
99852.893
99852.892
99852.891
99852.89
99852.889
99852.888
99852.888
99852.887
99852.886
99852.885
99852.885
99852.884
99852.883
99852.883
99852.882
99852.881
99852.881
99852.88
99852.88
99852.879
99852.878
99852.878
99852.877
99852.877
99852.876
99852.875
99852.875
99852.874
99852.874
99852.873
99852.873
99852.872
99852.872
99852.871
99852.871
99852.87
99852.87
99852.869
99852.869
99852.868
99852.868
99852.867
99852.867
99852.866
99852.866
99852.865
99852.865
99852.864
99852.864
99852.863
99852.863
99852.862
99852.862
99852.861
99852.861
99852.86
99852.86
99852.86
99852.859
99852.859
99852.858
99852.858
99852.857
99852.857
99852.856
99852.856
99852.856
99852.855
99852.855
99852.854
99852.854
99852.853
99852.853
99852.853
99852.852
99852.852
99852.851
99852.851
99852.851
99852.85
99820.229
99820.223
99820.219
99820.217
99820.215
99820.213
99820.211
99820.209
99820.207
99820.206
99820.204
99820.203
99820.201
99820.2
99820.199
99820.198
99820.197
99820.195
99820.194
99820.193
99820.193
99820.192
99820.191
99820.19
99820.189
99820.188
99820.188
99820.187
99820.186
99820.185
99820.185
99820.184
99820.183
99820.183
99820.182
99820.181
99820.181
99820.18
99820.18
99820.179
99820.178
99820.178
99820.177
99820.177
99820.176
99820.175
99820.175
99820.174
99820.174
99820.173
99820.173
99820.172
99820.172
99820.171
99820.171
99820.17
99820.17
99820.169
99820.169
99820.168
99820.168
99820.167
99820.167
99820.166
99820.166
99820.165
99820.165
99820.164
99820.164
99820.163
99820.163
99820.162
99820.162
99820.161
99820.161
99820.16
99820.16
99820.16
99820.159
99820.159
99820.158
99820.158
99820.157
99820.157
99820.156
99820.156
99820.156
99820.155
99820.155
99820.154
99820.154
99820.153
99820.153
99820.153
99820.152
99820.152
99820.151
99820.151
99820.151
99820.15
99787.53
99787.524
99787.52
99787.517
99787.515
99787.513
99787.511
99787.509
99787.507
99787.506
99787.504
99787.503
99787.501
99787.5
99787.499
99787.498
99787.497
99787.495
99787.494
99787.493
99787.493
99787.492
99787.491
99787.49
99787.489
99787.488
99787.488
99787.487
99787.486
99787.485
99787.485
99787.484
99787.483
99787.483
99787.482
99787.481
99787.481
99787.48
99787.48
99787.479
99787.478
99787.478
99787.477
99787.477
99787.476
99787.475
99787.475
99787.474
99787.474
99787.473
99787.473
99787.472
99787.472
99787.471
99787.471
99787.47
99787.47
99787.469
99787.469
99787.468
99787.468
99787.467
99787.467
99787.466
99787.466
99787.465
99787.465
99787.464
99787.464
99787.463
99787.463
99787.462
99787.462
99787.461
99787.461
99787.46
99787.46
99787.46
99787.459
99787.459
99787.458
99787.458
99787.457
99787.457
99787.456
99787.456
99787.456
99787.455
99787.455
99787.454
99787.454
99787.454
99787.453
99787.453
99787.452
99787.452
99787.451
99787.451
99787.451
99787.45
99754.832
99754.825
99754.82
99754.817
99754.815
99754.813
99754.811
99754.809
99754.807
99754.806
99754.804
99754.803
99754.801
99754.8
99754.799
99754.798
99754.796
99754.795
99754.794
99754.793
99754.793
99754.792
99754.791
99754.79
99754.789
99754.788
99754.788
99754.787
99754.786
99754.785
99754.785
99754.784
99754.783
99754.783
99754.782
99754.781
99754.781
99754.78
99754.78
99754.779
99754.778
99754.778
99754.777
99754.777
99754.776
99754.775
99754.775
99754.774
99754.774
99754.773
99754.773
99754.772
99754.772
99754.771
99754.771
99754.77
99754.77
99754.769
99754.769
99754.768
99754.768
99754.767
99754.767
99754.766
99754.766
99754.765
99754.765
99754.764
99754.764
99754.763
99754.763
99754.762
99754.762
99754.761
99754.761
99754.76
99754.76
99754.76
99754.759
99754.759
99754.758
99754.758
99754.757
99754.757
99754.756
99754.756
99754.756
99754.755
99754.755
99754.754
99754.754
99754.754
99754.753
99754.753
99754.752
99754.752
99754.751
99754.751
99754.751
99754.75
99722.135
99722.126
99722.12
99722.118
99722.115
99722.113
99722.111
99722.109
99722.107
99722.106
99722.104
99722.103
99722.101
99722.1
99722.099
99722.098
99722.097
99722.095
99722.094
99722.093
99722.093
99722.092
99722.091
99722.09
99722.089
99722.088
99722.088
99722.087
99722.086
99722.085
99722.085
99722.084
99722.083
99722.083
99722.082
99722.081
99722.081
99722.08
99722.08
99722.079
99722.078
99722.078
99722.077
99722.077
99722.076
99722.075
99722.075
99722.074
99722.074
99722.073
99722.073
99722.072
99722.072
99722.071
99722.071
99722.07
99722.07
99722.069
99722.069
99722.068
99722.068
99722.067
99722.067
99722.066
99722.066
99722.065
99722.065
99722.064
99722.064
99722.063
99722.063
99722.062
99722.062
99722.061
99722.061
99722.06
99722.06
99722.06
99722.059
99722.059
99722.058
99722.058
99722.057
99722.057
99722.056
99722.056
99722.056
99722.055
99722.055
99722.054
99722.054
99722.053
99722.053
99722.053
99722.052
99722.052
99722.051
99722.051
99722.051
99722.05
100278.03
100278.02
100278.02
100278.02
100278.02
100278.01
100278.01
100278.01
100278.01
100278.01
100278
100278
100278
100278
100278
100278
100278
100278
100277.99
100277.99
100277.99
100277.99
100277.99
100277.99
100277.99
100277.99
100277.99
100277.99
100277.99
100277.99
100277.98
100277.98
100277.98
100277.98
100277.98
100277.98
100277.98
100277.98
100277.98
100277.98
100277.98
100277.98
100277.98
100277.98
100277.98
100277.98
100277.97
100277.97
100277.97
100277.97
100277.97
100277.97
100277.97
100277.97
100277.97
100277.97
100277.97
100277.97
100277.97
100277.97
100277.97
100277.97
100277.97
100277.97
100277.97
100277.97
100277.96
100277.96
100277.96
100277.96
100277.96
100277.96
100277.96
100277.96
100277.96
100277.96
100277.96
100277.96
100277.96
100277.96
100277.96
100277.96
100277.96
100277.96
100277.96
100277.96
100277.96
100277.96
100277.95
100277.95
100277.95
100277.95
100277.95
100277.95
100277.95
100277.95
100277.95
100277.95
100277.95
100277.95
100245.33
100245.32
100245.32
100245.32
100245.31
100245.31
100245.31
100245.31
100245.31
100245.31
100245.3
100245.3
100245.3
100245.3
100245.3
100245.3
100245.3
100245.3
100245.29
100245.29
100245.29
100245.29
100245.29
100245.29
100245.29
100245.29
100245.29
100245.29
100245.29
100245.29
100245.28
100245.28
100245.28
100245.28
100245.28
100245.28
100245.28
100245.28
100245.28
100245.28
100245.28
100245.28
100245.28
100245.28
100245.28
100245.28
100245.27
100245.27
100245.27
100245.27
100245.27
100245.27
100245.27
100245.27
100245.27
100245.27
100245.27
100245.27
100245.27
100245.27
100245.27
100245.27
100245.27
100245.27
100245.27
100245.27
100245.26
100245.26
100245.26
100245.26
100245.26
100245.26
100245.26
100245.26
100245.26
100245.26
100245.26
100245.26
100245.26
100245.26
100245.26
100245.26
100245.26
100245.26
100245.26
100245.26
100245.26
100245.26
100245.25
100245.25
100245.25
100245.25
100245.25
100245.25
100245.25
100245.25
100245.25
100245.25
100245.25
100245.25
100212.63
100212.62
100212.62
100212.62
100212.61
100212.61
100212.61
100212.61
100212.61
100212.61
100212.6
100212.6
100212.6
100212.6
100212.6
100212.6
100212.6
100212.6
100212.59
100212.59
100212.59
100212.59
100212.59
100212.59
100212.59
100212.59
100212.59
100212.59
100212.59
100212.59
100212.58
100212.58
100212.58
100212.58
100212.58
100212.58
100212.58
100212.58
100212.58
100212.58
100212.58
100212.58
100212.58
100212.58
100212.58
100212.58
100212.57
100212.57
100212.57
100212.57
100212.57
100212.57
100212.57
100212.57
100212.57
100212.57
100212.57
100212.57
100212.57
100212.57
100212.57
100212.57
100212.57
100212.57
100212.57
100212.57
100212.56
100212.56
100212.56
100212.56
100212.56
100212.56
100212.56
100212.56
100212.56
100212.56
100212.56
100212.56
100212.56
100212.56
100212.56
100212.56
100212.56
100212.56
100212.56
100212.56
100212.56
100212.56
100212.55
100212.55
100212.55
100212.55
100212.55
100212.55
100212.55
100212.55
100212.55
100212.55
100212.55
100212.55
100179.93
100179.92
100179.92
100179.92
100179.91
100179.91
100179.91
100179.91
100179.91
100179.91
100179.9
100179.9
100179.9
100179.9
100179.9
100179.9
100179.9
100179.9
100179.89
100179.89
100179.89
100179.89
100179.89
100179.89
100179.89
100179.89
100179.89
100179.89
100179.89
100179.89
100179.88
100179.88
100179.88
100179.88
100179.88
100179.88
100179.88
100179.88
100179.88
100179.88
100179.88
100179.88
100179.88
100179.88
100179.88
100179.88
100179.87
100179.87
100179.87
100179.87
100179.87
100179.87
100179.87
100179.87
100179.87
100179.87
100179.87
100179.87
100179.87
100179.87
100179.87
100179.87
100179.87
100179.87
100179.87
100179.87
100179.86
100179.86
100179.86
100179.86
100179.86
100179.86
100179.86
100179.86
100179.86
100179.86
100179.86
100179.86
100179.86
100179.86
100179.86
100179.86
100179.86
100179.86
100179.86
100179.86
100179.86
100179.86
100179.85
100179.85
100179.85
100179.85
100179.85
100179.85
100179.85
100179.85
100179.85
100179.85
100179.85
100179.85
100147.22
100147.22
100147.22
100147.22
100147.21
100147.21
100147.21
100147.21
100147.21
100147.21
100147.2
100147.2
100147.2
100147.2
100147.2
100147.2
100147.2
100147.2
100147.19
100147.19
100147.19
100147.19
100147.19
100147.19
100147.19
100147.19
100147.19
100147.19
100147.19
100147.19
100147.18
100147.18
100147.18
100147.18
100147.18
100147.18
100147.18
100147.18
100147.18
100147.18
100147.18
100147.18
100147.18
100147.18
100147.18
100147.18
100147.17
100147.17
100147.17
100147.17
100147.17
100147.17
100147.17
100147.17
100147.17
100147.17
100147.17
100147.17
100147.17
100147.17
100147.17
100147.17
100147.17
100147.17
100147.17
100147.17
100147.16
100147.16
100147.16
100147.16
100147.16
100147.16
100147.16
100147.16
100147.16
100147.16
100147.16
100147.16
100147.16
100147.16
100147.16
100147.16
100147.16
100147.16
100147.16
100147.16
100147.16
100147.16
100147.15
100147.15
100147.15
100147.15
100147.15
100147.15
100147.15
100147.15
100147.15
100147.15
100147.15
100147.15
100114.52
100114.52
100114.52
100114.52
100114.51
100114.51
100114.51
100114.51
100114.51
100114.51
100114.5
100114.5
100114.5
100114.5
100114.5
100114.5
100114.5
100114.5
100114.49
100114.49
100114.49
100114.49
100114.49
100114.49
100114.49
100114.49
100114.49
100114.49
100114.49
100114.49
100114.48
100114.48
100114.48
100114.48
100114.48
100114.48
100114.48
100114.48
100114.48
100114.48
100114.48
100114.48
100114.48
100114.48
100114.48
100114.48
100114.47
100114.47
100114.47
100114.47
100114.47
100114.47
100114.47
100114.47
100114.47
100114.47
100114.47
100114.47
100114.47
100114.47
100114.47
100114.47
100114.47
100114.47
100114.47
100114.47
100114.46
100114.46
100114.46
100114.46
100114.46
100114.46
100114.46
100114.46
100114.46
100114.46
100114.46
100114.46
100114.46
100114.46
100114.46
100114.46
100114.46
100114.46
100114.46
100114.46
100114.46
100114.46
100114.45
100114.45
100114.45
100114.45
100114.45
100114.45
100114.45
100114.45
100114.45
100114.45
100114.45
100114.45
100081.82
100081.82
100081.82
100081.82
100081.81
100081.81
100081.81
100081.81
100081.81
100081.81
100081.8
100081.8
100081.8
100081.8
100081.8
100081.8
100081.8
100081.8
100081.79
100081.79
100081.79
100081.79
100081.79
100081.79
100081.79
100081.79
100081.79
100081.79
100081.79
100081.79
100081.78
100081.78
100081.78
100081.78
100081.78
100081.78
100081.78
100081.78
100081.78
100081.78
100081.78
100081.78
100081.78
100081.78
100081.78
100081.78
100081.77
100081.77
100081.77
100081.77
100081.77
100081.77
100081.77
100081.77
100081.77
100081.77
100081.77
100081.77
100081.77
100081.77
100081.77
100081.77
100081.77
100081.77
100081.77
100081.77
100081.76
100081.76
100081.76
100081.76
100081.76
100081.76
100081.76
100081.76
100081.76
100081.76
100081.76
100081.76
100081.76
100081.76
100081.76
100081.76
100081.76
100081.76
100081.76
100081.76
100081.76
100081.76
100081.75
100081.75
100081.75
100081.75
100081.75
100081.75
100081.75
100081.75
100081.75
100081.75
100081.75
100081.75
100049.12
100049.12
100049.12
100049.12
100049.11
100049.11
100049.11
100049.11
100049.11
100049.11
100049.1
100049.1
100049.1
100049.1
100049.1
100049.1
100049.1
100049.1
100049.09
100049.09
100049.09
100049.09
100049.09
100049.09
100049.09
100049.09
100049.09
100049.09
100049.09
100049.09
100049.08
100049.08
100049.08
100049.08
100049.08
100049.08
100049.08
100049.08
100049.08
100049.08
100049.08
100049.08
100049.08
100049.08
100049.08
100049.08
100049.07
100049.07
100049.07
100049.07
100049.07
100049.07
100049.07
100049.07
100049.07
100049.07
100049.07
100049.07
100049.07
100049.07
100049.07
100049.07
100049.07
100049.07
100049.07
100049.07
100049.06
100049.06
100049.06
100049.06
100049.06
100049.06
100049.06
100049.06
100049.06
100049.06
100049.06
100049.06
100049.06
100049.06
100049.06
100049.06
100049.06
100049.06
100049.06
100049.06
100049.06
100049.06
100049.05
100049.05
100049.05
100049.05
100049.05
100049.05
100049.05
100049.05
100049.05
100049.05
100049.05
100049.05
100016.42
100016.42
100016.42
100016.42
100016.41
100016.41
100016.41
100016.41
100016.41
100016.41
100016.4
100016.4
100016.4
100016.4
100016.4
100016.4
100016.4
100016.4
100016.39
100016.39
100016.39
100016.39
100016.39
100016.39
100016.39
100016.39
100016.39
100016.39
100016.39
100016.39
100016.38
100016.38
100016.38
100016.38
100016.38
100016.38
100016.38
100016.38
100016.38
100016.38
100016.38
100016.38
100016.38
100016.38
100016.38
100016.38
100016.37
100016.37
100016.37
100016.37
100016.37
100016.37
100016.37
100016.37
100016.37
100016.37
100016.37
100016.37
100016.37
100016.37
100016.37
100016.37
100016.37
100016.37
100016.37
100016.37
100016.36
100016.36
100016.36
100016.36
100016.36
100016.36
100016.36
100016.36
100016.36
100016.36
100016.36
100016.36
100016.36
100016.36
100016.36
100016.36
100016.36
100016.36
100016.36
100016.36
100016.36
100016.36
100016.35
100016.35
100016.35
100016.35
100016.35
100016.35
100016.35
100016.35
100016.35
100016.35
100016.35
100016.35
99983.723
99983.721
99983.718
99983.716
99983.714
99983.713
99983.711
99983.709
99983.707
99983.706
99983.704
99983.703
99983.702
99983.7
99983.699
99983.698
99983.697
99983.696
99983.695
99983.694
99983.693
99983.692
99983.691
99983.69
99983.689
99983.688
99983.688
99983.687
99983.686
99983.685
99983.685
99983.684
99983.683
99983.683
99983.682
99983.681
99983.681
99983.68
99983.68
99983.679
99983.678
99983.678
99983.677
99983.677
99983.676
99983.675
99983.675
99983.674
99983.674
99983.673
99983.673
99983.672
99983.672
99983.671
99983.671
99983.67
99983.67
99983.669
99983.669
99983.668
99983.668
99983.667
99983.667
99983.666
99983.666
99983.665
99983.665
99983.664
99983.664
99983.663
99983.663
99983.662
99983.662
99983.661
99983.661
99983.66
99983.66
99983.66
99983.659
99983.659
99983.658
99983.658
99983.657
99983.657
99983.656
99983.656
99983.656
99983.655
99983.655
99983.654
99983.654
99983.654
99983.653
99983.653
99983.652
99983.652
99983.651
99983.651
99983.651
99983.65
99951.023
99951.021
99951.018
99951.016
99951.014
99951.013
99951.011
99951.009
99951.007
99951.006
99951.004
99951.003
99951.002
99951
99950.999
99950.998
99950.997
99950.996
99950.995
99950.994
99950.993
99950.992
99950.991
99950.99
99950.989
99950.988
99950.988
99950.987
99950.986
99950.985
99950.985
99950.984
99950.983
99950.983
99950.982
99950.981
99950.981
99950.98
99950.98
99950.979
99950.978
99950.978
99950.977
99950.977
99950.976
99950.975
99950.975
99950.974
99950.974
99950.973
99950.973
99950.972
99950.972
99950.971
99950.971
99950.97
99950.97
99950.969
99950.969
99950.968
99950.968
99950.967
99950.967
99950.966
99950.966
99950.965
99950.965
99950.964
99950.964
99950.963
99950.963
99950.962
99950.962
99950.961
99950.961
99950.96
99950.96
99950.96
99950.959
99950.959
99950.958
99950.958
99950.957
99950.957
99950.956
99950.956
99950.956
99950.955
99950.955
99950.954
99950.954
99950.954
99950.953
99950.953
99950.952
99950.952
99950.951
99950.951
99950.951
99950.95
99918.324
99918.321
99918.318
99918.316
99918.314
99918.313
99918.311
99918.309
99918.307
99918.306
99918.304
99918.303
99918.302
99918.3
99918.299
99918.298
99918.297
99918.296
99918.295
99918.294
99918.293
99918.292
99918.291
99918.29
99918.289
99918.288
99918.288
99918.287
99918.286
99918.285
99918.285
99918.284
99918.283
99918.283
99918.282
99918.281
99918.281
99918.28
99918.28
99918.279
99918.278
99918.278
99918.277
99918.277
99918.276
99918.275
99918.275
99918.274
99918.274
99918.273
99918.273
99918.272
99918.272
99918.271
99918.271
99918.27
99918.27
99918.269
99918.269
99918.268
99918.268