/*--------------------------------*- C++ -*----------------------------------*\
  =========                 |
  \\      /  F ield         | OpenFOAM: The Open Source CFD Toolbox
   \\    /   O peration     | Website:  https://openfoam.org
    \\  /    A nd           | Version:  7
     \\/     M anipulation  |
\*---------------------------------------------------------------------------*/
FoamFile
{
    version     2.0;
    format      ascii;
    class       surfaceScalarField;
    location    "2550/water";
    object      phi;
}
// * * * * * * * * * * * * * * * * * * * * * * * * * * * * * * * * * * * * * //

dimensions      [1 0 -1 0 0 0 0];

internalField   nonuniform List<scalar> 
156660
(
9.9057239e-05
6.0010402e-06
6.0528092e-06
8.6847498e-05
6.0555113e-06
6.1542307e-06
7.5687891e-05
5.5111362e-06
5.6484701e-06
6.5441704e-05
5.0404181e-06
5.2057689e-06
5.6267661e-05
4.4956436e-06
4.6783992e-06
4.8318019e-05
3.8797648e-06
4.0698777e-06
4.1624776e-05
3.2524448e-06
3.4407981e-06
3.6124897e-05
2.660462e-06
2.839417e-06
3.1692235e-05
2.1345127e-06
2.2981489e-06
2.8162841e-05
1.6926975e-06
1.8366964e-06
2.5361437e-05
1.3399933e-06
1.4614113e-06
2.3124664e-05
1.0698477e-06
1.1669256e-06
2.1315127e-05
8.6875416e-07
9.4078224e-07
1.9825714e-05
7.2110064e-07
7.6831273e-07
1.8577278e-05
6.1248246e-07
6.3595307e-07
1.7513255e-05
5.3125219e-07
5.327715e-07
1.6593744e-05
4.6879724e-07
4.5071348e-07
1.5790433e-05
4.1913719e-07
3.8417384e-07
1.5082784e-05
3.782907e-07
3.2935848e-07
1.4455417e-05
3.4367129e-07
2.8369562e-07
1.3896409e-05
3.1361407e-07
2.4539332e-07
1.339622e-05
2.8704448e-07
2.1314451e-07
1.2947015e-05
2.6326032e-07
1.8594508e-07
1.2542237e-05
2.4179367e-07
1.6298461e-07
1.2176318e-05
2.2232211e-07
1.4359687e-07
1.1844484e-05
2.0461479e-07
1.272188e-07
1.1542609e-05
1.8849494e-07
1.1337974e-07
1.1267116e-05
1.7381573e-07
1.0167791e-07
1.1014892e-05
1.604627e-07
9.1760816e-08
1.0783252e-05
1.4833969e-07
8.3300607e-08
1.0569851e-05
1.3734903e-07
7.6052136e-08
1.0372614e-05
1.2738862e-07
6.9848311e-08
1.0189731e-05
1.1836806e-07
6.4514834e-08
1.001963e-05
1.1020448e-07
5.9896631e-08
9.8609388e-06
1.0281925e-07
5.5871669e-08
9.7124594e-06
9.6137979e-08
5.2341369e-08
9.5731439e-06
9.00912e-08
4.9224343e-08
9.4420759e-06
8.4614486e-08
4.6453566e-08
9.3184531e-06
7.9648678e-08
4.3974098e-08
9.2015723e-06
7.5139719e-08
4.1741045e-08
9.0908166e-06
7.1038169e-08
3.9717549e-08
8.9856432e-06
6.7301151e-08
3.7872319e-08
8.8855707e-06
6.3894228e-08
3.6178163e-08
8.7901757e-06
6.0780101e-08
3.4614955e-08
8.6990829e-06
5.792618e-08
3.3166638e-08
8.611959e-06
5.5303716e-08
3.182013e-08
8.5285072e-06
5.2887455e-08
3.0564416e-08
8.4484618e-06
5.0655084e-08
2.9390279e-08
8.3715848e-06
4.8587066e-08
2.8290028e-08
8.2976614e-06
4.6666191e-08
2.7257216e-08
8.2264975e-06
4.4877471e-08
2.6286426e-08
8.1579202e-06
4.3208766e-08
2.5368537e-08
8.0917731e-06
4.1649056e-08
2.4498041e-08
8.0279108e-06
4.0186978e-08
2.3675337e-08
7.9662005e-06
3.8812674e-08
2.2897511e-08
7.9065219e-06
3.7518404e-08
2.2160257e-08
7.8487639e-06
3.6297862e-08
2.1460154e-08
7.7928242e-06
3.5145141e-08
2.0794609e-08
7.7386083e-06
3.4054663e-08
2.016116e-08
7.6860293e-06
3.302133e-08
1.9557678e-08
7.6350062e-06
3.2040795e-08
1.8982264e-08
7.5854641e-06
3.1109075e-08
1.8433081e-08
7.537333e-06
3.0222621e-08
1.7908496e-08
7.4905478e-06
2.937823e-08
1.7406997e-08
7.4450476e-06
2.8572996e-08
1.6927204e-08
7.4007756e-06
2.7804244e-08
1.6467812e-08
7.3576783e-06
2.7069602e-08
1.6027633e-08
7.3157056e-06
2.6367049e-08
1.560562e-08
7.2748103e-06
2.5694641e-08
1.5200662e-08
7.2349479e-06
2.5050572e-08
1.4811866e-08
7.1960766e-06
2.4433085e-08
1.4438174e-08
7.158157e-06
2.3840679e-08
1.4078903e-08
7.1211518e-06
2.3271904e-08
1.3733306e-08
7.0850258e-06
2.2725495e-08
1.3400513e-08
7.0497456e-06
2.2200224e-08
1.3079948e-08
7.0152798e-06
2.1694916e-08
1.2770921e-08
6.9815985e-06
2.1208562e-08
1.2472765e-08
6.9486733e-06
2.0740219e-08
1.2184923e-08
6.9164775e-06
2.0288978e-08
1.1906777e-08
6.8849857e-06
1.9853963e-08
1.1637812e-08
6.8541739e-06
1.9434361e-08
1.1377448e-08
6.8240193e-06
1.902945e-08
1.1125113e-08
6.7945006e-06
1.8638504e-08
1.0880241e-08
6.7655975e-06
1.8260754e-08
1.0642315e-08
6.7372912e-06
1.7895541e-08
1.0410745e-08
6.709564e-06
1.7542101e-08
1.0185083e-08
6.6823995e-06
1.7199633e-08
9.9648857e-09
6.6557824e-06
1.6867262e-08
9.7497878e-09
6.6296983e-06
1.6544126e-08
9.5399548e-09
6.6041331e-06
1.6229289e-08
9.3359927e-09
6.5790714e-06
1.5921977e-08
9.1396703e-09
6.554494e-06
1.5622331e-08
8.9550839e-09
6.5303708e-06
1.5332557e-08
8.7906684e-09
6.5066467e-06
1.5060468e-08
8.6636081e-09
6.4832094e-06
1.482781e-08
8.6095389e-09
6.4598103e-06
1.4693095e-08
8.7060536e-09
6.4358387e-06
1.4826397e-08
9.145144e-09
6.4096302e-06
1.5741743e-08
1.0466747e-08
6.3782854e-06
1.8026582e-08
1.3318256e-08
3.2300199e-08
2.792359e-08
0.00010646494
4.1872385e-06
6.4599816e-06
0.0001002019
5.695418e-06
6.6231353e-06
9.3659588e-05
5.7790389e-06
6.2744098e-06
8.7011589e-05
5.6514782e-06
6.0369387e-06
8.0422927e-05
5.366912e-06
5.7173941e-06
7.4094022e-05
4.9022832e-06
5.3063862e-06
6.8167026e-05
4.3278136e-06
4.8516272e-06
6.2722565e-05
3.717891e-06
4.387032e-06
5.7799049e-05
3.1243144e-06
3.9337144e-06
5.3403345e-05
2.5820689e-06
3.5063328e-06
4.9517402e-05
2.1121062e-06
3.1138299e-06
4.6105482e-05
1.7220197e-06
2.7597474e-06
4.3121558e-05
1.4089355e-06
2.4437429e-06
4.0515558e-05
1.1637552e-06
2.163346e-06
3.8237948e-05
9.7485851e-07
1.9152336e-06
3.6242683e-05
8.3055976e-07
1.6959573e-06
3.4488759e-05
7.20437e-07
1.5022849e-06
3.2940716e-05
6.3586299e-07
1.3313172e-06
3.1568463e-05
5.7005006e-07
1.1804931e-06
3.0346733e-05
5.1784897e-07
1.0475522e-06
2.9254398e-05
4.754595e-07
9.3049032e-07
2.8273782e-05
4.4013958e-07
8.2752023e-07
2.7390054e-05
4.099489e-07
7.3704006e-07
2.6590699e-05
3.8353957e-07
6.5760855e-07
2.5865102e-05
3.5998887e-07
5.879307e-07
2.5204197e-05
3.3867631e-07
5.2684259e-07
2.4600205e-05
3.1918357e-07
4.7330347e-07
2.4046429e-05
3.012019e-07
4.2639017e-07
2.3537072e-05
2.8455209e-07
3.8526717e-07
2.3067119e-05
2.6911103e-07
3.491824e-07
2.2632208e-05
2.5478166e-07
3.1747787e-07
2.2228528e-05
2.4147382e-07
2.8959532e-07
2.1852744e-05
2.2911075e-07
2.6504126e-07
2.1501947e-05
2.1762892e-07
2.4337256e-07
2.1173591e-05
2.0696951e-07
2.2420573e-07
2.0865444e-05
1.9707567e-07
2.0720867e-07
2.0575549e-05
1.8789253e-07
1.9209397e-07
2.0302183e-05
1.7936724e-07
1.7861342e-07
2.0043829e-05
1.7144911e-07
1.6655323e-07
1.979915e-05
1.6408984e-07
1.557294e-07
1.956696e-05
1.5724383e-07
1.4598402e-07
1.934621e-05
1.5086897e-07
1.3718216e-07
1.9135969e-05
1.4492653e-07
1.2920883e-07
1.8935407e-05
1.3937907e-07
1.2196307e-07
1.8743783e-05
1.3419229e-07
1.153576e-07
1.8560435e-05
1.2933507e-07
1.0931727e-07
1.8384766e-05
1.2477904e-07
1.0377715e-07
1.8216241e-05
1.2049851e-07
9.8681289e-08
1.8054377e-05
1.1647015e-07
9.3981309e-08
1.7898734e-05
1.1267292e-07
8.9635442e-08
1.7748917e-05
1.0908823e-07
8.5607014e-08
1.7604563e-05
1.0570007e-07
8.1862426e-08
1.7465345e-05
1.0249339e-07
7.8373268e-08
1.7330962e-05
9.9452995e-08
7.5117006e-08
1.7201138e-05
9.6564415e-08
7.2072701e-08
1.7075619e-05
9.3816633e-08
6.9221162e-08
1.695417e-05
9.1201119e-08
6.6545129e-08
1.6836577e-05
8.8709095e-08
6.4029527e-08
1.6722638e-05
8.6331916e-08
6.1661033e-08
1.661217e-05
8.4061752e-08
5.9427697e-08
1.6505001e-05
8.189152e-08
5.7318822e-08
1.640097e-05
7.9814959e-08
5.5324834e-08
1.6299929e-05
7.7826186e-08
5.3437129e-08
1.620174e-05
7.5919858e-08
5.1647897e-08
1.6106272e-05
7.4090999e-08
4.9950131e-08
1.6013404e-05
7.2334963e-08
4.8337414e-08
1.5923022e-05
7.0647698e-08
4.6803877e-08
1.5835019e-05
6.9025723e-08
4.5344288e-08
1.5749294e-05
6.7465523e-08
4.3953701e-08
1.5665753e-05
6.5963777e-08
4.2627725e-08
1.5584307e-05
6.4517362e-08
4.136213e-08
1.5504871e-05
6.3123422e-08
4.0153336e-08
1.5427365e-05
6.1779328e-08
3.899778e-08
1.5351716e-05
6.0482545e-08
3.789229e-08
1.5277852e-05
5.9230817e-08
3.6833815e-08
1.5205705e-05
5.802196e-08
3.581969e-08
1.5135212e-05
5.6854033e-08
3.4847373e-08
1.5066313e-05
5.5724988e-08
3.3914345e-08
1.499895e-05
5.4633147e-08
3.3018395e-08
1.493307e-05
5.3576701e-08
3.2157429e-08
1.4868621e-05
5.2554185e-08
3.1329401e-08
1.4805554e-05
5.1563935e-08
3.053243e-08
1.4743823e-05
5.0604477e-08
2.9764662e-08
1.4683385e-05
4.9674269e-08
2.9024397e-08
1.4624199e-05
4.8771775e-08
2.8309842e-08
1.4566226e-05
4.7895441e-08
2.7619573e-08
1.4509431e-05
4.7043477e-08
2.6951957e-08
1.4453778e-05
4.6214115e-08
2.6305753e-08
1.4399237e-05
4.5405412e-08
2.5679882e-08
1.4345777e-05
4.4615696e-08
2.507373e-08
1.4293367e-05
4.3844227e-08
2.4487708e-08
1.4241972e-05
4.3092868e-08
2.3923736e-08
1.4191548e-05
4.2369918e-08
2.3387155e-08
1.4142019e-05
4.1699325e-08
2.2889637e-08
1.4093249e-05
4.114165e-08
2.2456625e-08
1.4044951e-05
4.0844622e-08
2.2146553e-08
1.3996485e-05
4.1169191e-08
2.2123047e-08
1.3946229e-05
4.3012304e-08
2.2985396e-08
1.389015e-05
4.8540239e-08
2.5565831e-08
6.3281567e-08
5.0000864e-08
0.00010603565
2.7876425e-06
6.4750379e-06
0.00010074799
4.4145413e-06
6.5685292e-06
9.5493515e-05
4.8594028e-06
6.1741159e-06
9.0256432e-05
4.930369e-06
5.9581921e-06
8.5101366e-05
4.8311767e-06
5.6908012e-06
8.0102875e-05
4.5561761e-06
5.3445981e-06
7.5322251e-05
4.1469521e-06
4.9614853e-06
7.0803266e-05
3.6678926e-06
4.5689837e-06
6.6576264e-05
3.1701903e-06
4.1811255e-06
6.2660725e-05
2.6900109e-06
3.8075976e-06
5.9065443e-05
2.2519318e-06
3.4554566e-06
5.5788936e-05
1.8697304e-06
3.1287957e-06
5.2820978e-05
1.5477473e-06
2.8291458e-06
5.014479e-05
1.2836302e-06
2.5563139e-06
4.7739304e-05
1.07123e-06
2.3091141e-06
4.5581183e-05
9.0281506e-07
2.0858661e-06
4.3646423e-05
7.7048784e-07
1.884709e-06
4.1911533e-05
6.6697375e-07
1.7037793e-06
4.0354306e-05
5.8598197e-07
1.541295e-06
3.8954268e-05
5.2230222e-07
1.3955849e-06
3.769288e-05
4.7175605e-07
1.265091e-06
3.6553576e-05
4.3107983e-07
1.1483634e-06
3.552169e-05
3.9778206e-07
1.0440533e-06
3.4584322e-05
3.6999884e-07
9.5090828e-07
3.3730181e-05
3.4635983e-07
8.6777018e-07
3.2949411e-05
3.2587759e-07
7.9356871e-07
3.2233419e-05
3.0784048e-07
7.2733487e-07
3.1574711e-05
2.9172985e-07
6.6818105e-07
3.0966769e-05
2.7719266e-07
6.1530126e-07
3.0403928e-05
2.6398103e-07
5.679702e-07
2.9881258e-05
2.5190852e-07
5.2554316e-07
2.9394455e-05
2.4082712e-07
4.8744998e-07
2.8939761e-05
2.3062158e-07
4.5318328e-07
2.8513895e-05
2.2120153e-07
4.2229387e-07
2.8113985e-05
2.1249192e-07
3.9438671e-07
2.7737518e-05
2.0442798e-07
3.6911489e-07
2.7382285e-05
1.9695192e-07
3.4617385e-07
2.7046344e-05
1.900118e-07
3.2529678e-07
2.6727982e-05
1.8355999e-07
3.0625045e-07
2.6425689e-05
1.7755275e-07
2.8883086e-07
2.6138123e-05
1.7195003e-07
2.7285981e-07
2.5864094e-05
1.6671516e-07
2.5818182e-07
2.5602546e-05
1.6181456e-07
2.4466092e-07
2.535253e-05
1.572171e-07
2.3217767e-07
2.51132e-05
1.5289443e-07
2.2062724e-07
2.4883797e-05
1.4882096e-07
2.0991773e-07
2.4663634e-05
1.4497366e-07
1.9996813e-07
2.4452094e-05
1.4133184e-07
1.9070704e-07
2.4248615e-05
1.3787698e-07
1.8207153e-07
2.405269e-05
1.3459269e-07
1.7400571e-07
2.3863854e-05
1.3146462e-07
1.6645989e-07
2.3681684e-05
1.2848057e-07
1.5938924e-07
2.3505794e-05
1.2562917e-07
1.5275411e-07
2.3335829e-05
1.2289867e-07
1.4651969e-07
2.3171462e-05
1.2027633e-07
1.4065462e-07
2.3012394e-05
1.1775473e-07
1.351302e-07
2.2858345e-05
1.1532967e-07
1.2992045e-07
2.2709057e-05
1.1299536e-07
1.2500177e-07
2.2564291e-05
1.1074514e-07
1.203529e-07
2.2423824e-05
1.0857344e-07
1.1595458e-07
2.2287451e-05
1.0647547e-07
1.1178923e-07
2.2154978e-05
1.0444702e-07
1.0784079e-07
2.2026226e-05
1.024842e-07
1.0409458e-07
2.1901025e-05
1.0058352e-07
1.0053714e-07
2.1779218e-05
9.8741554e-08
9.7156164e-08
2.1660658e-05
9.695489e-08
9.3940263e-08
2.1545205e-05
9.5221243e-08
9.0879055e-08
2.1432729e-05
9.3538789e-08
8.796282e-08
2.1323107e-05
9.1905299e-08
8.5182591e-08
2.1216222e-05
9.0318503e-08
8.2530176e-08
2.1111965e-05
8.8776405e-08
7.9997884e-08
2.1010233e-05
8.7277133e-08
7.7578628e-08
2.0910927e-05
8.5818965e-08
7.5265873e-08
2.0813956e-05
8.4400311e-08
7.3053426e-08
2.0719232e-05
8.3019679e-08
7.0935661e-08
2.0626671e-05
8.167561e-08
6.8907205e-08
2.0536195e-05
8.0366834e-08
6.6963128e-08
2.0447729e-05
7.9091981e-08
6.5098743e-08
2.0361203e-05
7.7849825e-08
6.3309743e-08
2.0276548e-05
7.663923e-08
6.1592035e-08
2.0193702e-05
7.5459019e-08
5.9941739e-08
2.0112602e-05
7.4307988e-08
5.8355234e-08
2.0033193e-05
7.318492e-08
5.6829053e-08
1.9955419e-05
7.2088604e-08
5.5359955e-08
1.9879228e-05
7.1017649e-08
5.394485e-08
1.9804572e-05
6.9970425e-08
5.258071e-08
1.9731406e-05
6.8945249e-08
5.1264783e-08
1.9659685e-05
6.7940121e-08
4.9994403e-08
1.9589371e-05
6.6953044e-08
4.8767032e-08
1.9520423e-05
6.5982379e-08
4.7580548e-08
1.9452807e-05
6.5028e-08
4.643309e-08
1.9386482e-05
6.409413e-08
4.5323739e-08
1.9321404e-05
6.3194701e-08
4.4253068e-08
1.9257511e-05
6.2366352e-08
4.3225226e-08
1.9194705e-05
6.1695183e-08
4.2253136e-08
1.9132798e-05
6.1374084e-08
4.137741e-08
1.9071394e-05
6.1822424e-08
4.0750678e-08
1.9009424e-05
6.3924751e-08
4.1057604e-08
1.8944661e-05
6.9304703e-08
4.3998845e-08
7.9170961e-08
7.4661547e-08
0.0001054937
1.9169871e-06
6.4880406e-06
0.00010005365
3.2729596e-06
6.5816334e-06
9.4926077e-05
3.8288995e-06
6.1580776e-06
8.9946373e-05
3.9838108e-06
5.9262629e-06
8.5163276e-05
3.9595077e-06
5.6547657e-06
8.0619137e-05
3.7899368e-06
5.3103784e-06
7.6329462e-05
3.5015547e-06
4.9350725e-06
7.230016e-05
3.1412013e-06
4.5559928e-06
6.8534206e-05
2.7514802e-06
4.1846641e-06
6.5032983e-05
2.3633493e-06
3.8278852e-06
6.1795789e-05
1.9984143e-06
3.490711e-06
5.8818843e-05
1.6703759e-06
3.176301e-06
5.6094718e-05
1.3858295e-06
2.886043e-06
5.3612488e-05
1.1457944e-06
2.6200649e-06
5.1358373e-05
9.4764119e-07
2.3777043e-06
4.9316593e-05
7.8676783e-07
2.1578272e-06
4.7470246e-05
6.5779544e-07
1.9590391e-06
4.5802069e-05
5.5532545e-07
1.7798252e-06
4.4295042e-05
4.7437117e-07
1.6186378e-06
4.293283e-05
4.1056667e-07
1.4739479e-06
4.1700078e-05
3.6023235e-07
1.3442759e-06
4.0582591e-05
3.2035741e-07
1.2282094e-06
3.956742e-05
2.8853734e-07
1.1244154e-06
3.8642881e-05
2.6289065e-07
1.0316467e-06
3.7798527e-05
2.4196986e-07
9.4874402e-07
3.7025076e-05
2.2467704e-07
8.7465173e-07
3.6314324e-05
2.1018899e-07
8.084041e-07
3.5659057e-05
1.9788605e-07
7.491104e-07
3.5052961e-05
1.8731582e-07
6.959728e-07
3.4490519e-05
1.7814874e-07
6.482738e-07
3.3966922e-05
1.7013172e-07
6.053744e-07
3.3477973e-05
1.6306729e-07
5.6670865e-07
3.3020016e-05
1.5680299e-07
5.3177544e-07
3.2589865e-05
1.5122054e-07
5.0013241e-07
3.218474e-05
1.4622562e-07
4.7139137e-07
3.1802215e-05
1.4174073e-07
4.4521235e-07
3.1440168e-05
1.3770097e-07
4.2129809e-07
3.1096739e-05
1.3405097e-07
3.9938923e-07
3.0770297e-05
1.3074295e-07
3.7925953e-07
3.0459402e-05
1.2773518e-07
3.6071194e-07
3.0162787e-05
1.2499091e-07
3.435748e-07
2.9879325e-05
1.2247785e-07
3.276985e-07
2.960802e-05
1.2016731e-07
3.1295271e-07
2.934798e-05
1.180338e-07
2.992235e-07
2.9098408e-05
1.1605465e-07
2.8641137e-07
2.885859e-05
1.1420982e-07
2.7442904e-07
2.8627882e-05
1.1248191e-07
2.632e-07
2.8405701e-05
1.1085558e-07
2.5265682e-07
2.819152e-05
1.0931759e-07
2.427402e-07
2.7984859e-05
1.0785647e-07
2.3339758e-07
2.7785279e-05
1.0646279e-07
2.2458211e-07
2.7592378e-05
1.0512873e-07
2.1625215e-07
2.740579e-05
1.0384739e-07
2.0837036e-07
2.7225174e-05
1.0261118e-07
2.0090359e-07
2.705022e-05
1.0140745e-07
1.9382257e-07
2.6880641e-05
1.0023384e-07
1.871004e-07
2.6716166e-05
9.9092338e-08
1.8071224e-07
2.6556546e-05
9.7979979e-08
1.746356e-07
2.6401548e-05
9.689254e-08
1.6885013e-07
2.6250957e-05
9.5827106e-08
1.633374e-07
2.610457e-05
9.4781693e-08
1.5808042e-07
2.5962199e-05
9.3754738e-08
1.5306361e-07
2.5823666e-05
9.2744932e-08
1.4827257e-07
2.5688804e-05
9.1751046e-08
1.436941e-07
2.5557458e-05
9.0771771e-08
1.3931597e-07
2.5429481e-05
8.980519e-08
1.3512692e-07
2.5304734e-05
8.8851464e-08
1.3111645e-07
2.5183087e-05
8.7911231e-08
1.2727466e-07
2.5064416e-05
8.6983931e-08
1.2359242e-07
2.4948604e-05
8.6068906e-08
1.2006119e-07
2.4835542e-05
8.5165793e-08
1.1667301e-07
2.4725124e-05
8.4274338e-08
1.1342047e-07
2.4617252e-05
8.3394281e-08
1.1029657e-07
2.4511832e-05
8.252548e-08
1.0729477e-07
2.4408775e-05
8.1667742e-08
1.0440899e-07
2.4307997e-05
8.0821013e-08
1.0163344e-07
2.4209416e-05
7.9985044e-08
9.8962664e-08
2.4112956e-05
7.9159745e-08
9.6391551e-08
2.4018546e-05
7.834502e-08
9.391528e-08
2.3926115e-05
7.7540678e-08
9.1529308e-08
2.3835598e-05
7.6746566e-08
8.9229239e-08
2.3746933e-05
7.5962304e-08
8.701101e-08
2.366006e-05
7.5187627e-08
8.4870718e-08
2.3574922e-05
7.4421964e-08
8.2804542e-08
2.3491466e-05
7.3664635e-08
8.0808906e-08
2.3409641e-05
7.2914635e-08
7.8880335e-08
2.33294e-05
7.2170708e-08
7.7015498e-08
2.3250698e-05
7.1431326e-08
7.5211003e-08
2.3173492e-05
7.0694883e-08
7.3463611e-08
2.3097745e-05
6.9960221e-08
7.1770038e-08
2.3023418e-05
6.9227992e-08
7.0127004e-08
2.2950477e-05
6.8503512e-08
6.8531157e-08
2.2878889e-05
6.7802924e-08
6.6979725e-08
2.2808619e-05
6.716509e-08
6.5471599e-08
2.2739625e-05
6.6675264e-08
6.4013348e-08
2.267185e-05
6.6507096e-08
6.2642347e-08
2.2605149e-05
6.6990746e-08
6.1532373e-08
2.2538888e-05
6.8686025e-08
6.1499889e-08
2.2471121e-05
7.2226945e-08
6.4845109e-08
7.6722832e-08
9.8461316e-08
0.0001051979
1.3340884e-06
6.4961221e-06
9.9496561e-05
2.3731022e-06
6.6011947e-06
9.4262459e-05
2.9019223e-06
6.1610799e-06
8.9251186e-05
3.0856641e-06
5.9094196e-06
8.4493498e-05
3.0947347e-06
5.6224614e-06
8.0033635e-05
2.9846657e-06
5.265134e-06
7.5876907e-05
2.7790155e-06
4.8792667e-06
7.2014635e-05
2.5106844e-06
4.4927895e-06
6.8436293e-05
2.2128728e-06
4.1169489e-06
6.5131387e-05
1.9107259e-06
3.7575291e-06
6.208941e-05
1.621732e-06
3.4186596e-06
5.9299432e-05
1.3573877e-06
3.1029661e-06
5.6749589e-05
1.1240344e-06
2.8116386e-06
5.4426788e-05
9.2377949e-07
2.5448158e-06
5.2316754e-05
7.5572798e-07
2.3019466e-06
5.0404313e-05
6.1717858e-07
2.0820302e-06
4.8673788e-05
5.0454351e-07
1.8837772e-06
4.7109414e-05
4.1397181e-07
1.7057274e-06
4.5695713e-05
3.4173651e-07
1.5463363e-06
4.4417792e-05
2.8445143e-07
1.4040359e-06
4.3261575e-05
2.3917116e-07
1.277278e-06
4.2213952e-05
2.0341507e-07
1.1645652e-06
4.1262871e-05
1.7514745e-07
1.0644718e-06
4.039737e-05
1.5273233e-07
9.7565895e-07
3.9607583e-05
1.3487528e-07
8.9688144e-07
3.8884688e-05
1.2055568e-07
8.2701637e-07
3.8220848e-05
1.0901091e-07
7.6501855e-07
3.7609155e-05
9.9633855e-08
7.0994486e-07
3.7043542e-05
9.1977468e-08
6.6095086e-07
3.6518702e-05
8.5705842e-08
6.1728287e-07
3.6030009e-05
8.055241e-08
5.7827309e-07
3.5573433e-05
7.6308282e-08
5.4333414e-07
3.5145475e-05
7.2811294e-08
5.1195028e-07
3.4743091e-05
6.9934128e-08
4.8367022e-07
3.4363641e-05
6.7575441e-08
4.5810067e-07
3.4004828e-05
6.5652929e-08
4.3489999e-07
3.3664659e-05
6.4098595e-08
4.1377207e-07
3.3341393e-05
6.2855931e-08
3.9446094e-07
3.3033513e-05
6.1877017e-08
3.7674528e-07
3.2739693e-05
6.1121086e-08
3.6043425e-07
3.2458768e-05
6.0553054e-08
3.453633e-07
3.2189712e-05
6.014265e-08
3.3139056e-07
3.1931622e-05
5.9863648e-08
3.1839375e-07
3.1683696e-05
5.9693144e-08
3.0626735e-07
3.1445219e-05
5.9611196e-08
2.9492011e-07
3.1215555e-05
5.9600647e-08
2.8427318e-07
3.0994132e-05
5.9646567e-08
2.7425806e-07
3.0780436e-05
5.9736207e-08
2.6481539e-07
3.0574002e-05
5.9858654e-08
2.5589332e-07
3.0374407e-05
6.0004948e-08
2.4744662e-07
3.0181267e-05
6.0167646e-08
2.3943549e-07
2.9994229e-05
6.0341261e-08
2.3182483e-07
2.9812971e-05
6.0521796e-08
2.2458372e-07
2.9637193e-05
6.0704495e-08
2.1768454e-07
2.9466629e-05
6.0867331e-08
2.1110458e-07
2.9301024e-05
6.1017007e-08
2.048218e-07
2.914014e-05
6.1160878e-08
1.988157e-07
2.8983756e-05
6.1294984e-08
1.9306839e-07
2.8831669e-05
6.1415492e-08
1.8756391e-07
2.8683688e-05
6.1520951e-08
1.8228764e-07
2.8539633e-05
6.1610571e-08
1.7722635e-07
2.8399336e-05
6.1683784e-08
1.7236784e-07
2.8262639e-05
6.1740469e-08
1.6770088e-07
2.8129394e-05
6.1780701e-08
1.6321519e-07
2.7999461e-05
6.1803872e-08
1.5890122e-07
2.7872709e-05
6.1807377e-08
1.5475036e-07
2.7749012e-05
6.1793572e-08
1.5075441e-07
2.7628253e-05
6.1764811e-08
1.4690556e-07
2.7510319e-05
6.1721001e-08
1.4319663e-07
2.7395105e-05
6.1662105e-08
1.3962084e-07
2.728251e-05
6.1588611e-08
1.36172e-07
2.7172439e-05
6.1501079e-08
1.3284423e-07
2.7064802e-05
6.1399997e-08
1.2963193e-07
2.6959511e-05
6.1285955e-08
1.2652992e-07
2.6856486e-05
6.1159531e-08
1.2353327e-07
2.6755649e-05
6.1021298e-08
1.2063733e-07
2.6656924e-05
6.0871863e-08
1.1783768e-07
2.6560242e-05
6.0711695e-08
1.1513014e-07
2.6465535e-05
6.0541363e-08
1.1251078e-07
2.6372738e-05
6.0361311e-08
1.0997578e-07
2.6281791e-05
6.0171942e-08
1.0752159e-07
2.6192636e-05
5.9973557e-08
1.0514469e-07
2.6105215e-05
5.9766302e-08
1.0284183e-07
2.6019477e-05
5.9550234e-08
1.0060971e-07
2.5935371e-05
5.9325139e-08
9.8445268e-08
2.585285e-05
5.9090478e-08
9.6345407e-08
2.5771868e-05
5.8845465e-08
9.4306954e-08
2.5692384e-05
5.8588973e-08
9.2326742e-08
2.5614357e-05
5.8319795e-08
9.0401421e-08
2.5537753e-05
5.8037076e-08
8.8527304e-08
2.5462539e-05
5.7741622e-08
8.6700187e-08
2.5388689e-05
5.7438422e-08
8.4915123e-08
2.5316184e-05
5.7141449e-08
8.3166604e-08
2.5245017e-05
5.6882575e-08
8.1449653e-08
2.51752e-05
5.6726047e-08
7.9765811e-08
2.510677e-05
5.6787905e-08
7.8149198e-08
2.5039729e-05
5.7251618e-08
7.6780987e-08
2.4973573e-05
5.8330935e-08
7.6510237e-08
2.4906079e-05
5.9989459e-08
7.9732195e-08
6.0714975e-08
1.1287823e-07
0.00010503672
9.0789368e-07
6.5005614e-06
9.9140653e-05
1.6524914e-06
6.6166801e-06
9.3788329e-05
2.0825241e-06
6.1717217e-06
8.8708526e-05
2.2549373e-06
5.91053e-06
8.3909682e-05
2.278404e-06
5.6151748e-06
7.9437109e-05
2.2074821e-06
5.2497564e-06
7.5296201e-05
2.0645348e-06
4.8553893e-06
7.1474034e-05
1.8722543e-06
4.4605969e-06
6.7955013e-05
1.6547667e-06
4.0771269e-06
6.4723621e-05
1.4313505e-06
3.7107669e-06
6.1764423e-05
1.2154297e-06
3.3655008e-06
5.9062056e-05
1.015864e-06
3.0438911e-06
5.6601108e-05
8.3782744e-07
2.7471548e-06
5.4365944e-05
6.8344646e-07
2.475497e-06
5.2340648e-05
5.525853e-07
2.2284383e-06
5.0509125e-05
4.4366547e-07
2.0050361e-06
4.8855299e-05
3.5433457e-07
1.8040352e-06
4.7363353e-05
2.8193591e-07
1.6239821e-06
4.6017963e-05
2.2381347e-07
1.4633127e-06
4.4804502e-05
1.7749384e-07
1.3204181e-06
4.3709199e-05
1.4078089e-07
1.1936935e-06
4.2719248e-05
1.1179157e-07
1.081575e-06
4.1822875e-05
8.8954537e-08
9.8256584e-07
4.1009364e-05
7.0988021e-08
8.9525474e-07
4.0269054e-05
5.6861816e-08
8.1832382e-07
3.9593306e-05
4.5719145e-08
7.5058475e-07
3.8974405e-05
3.6977872e-08
6.9093439e-07
3.8405585e-05
3.0067349e-08
6.3838632e-07
3.7880869e-05
2.4650828e-08
5.920424e-07
3.7395029e-05
2.0439991e-08
5.5110605e-07
3.6943514e-05
1.7190301e-08
5.1487713e-07
3.6522366e-05
1.4716762e-08
4.8273957e-07
3.6128148e-05
1.287477e-08
4.5415389e-07
3.5757883e-05
1.1549922e-08
4.2864941e-07
3.5408991e-05
1.0650762e-08
4.0581705e-07
3.5079238e-05
1.0103654e-08
3.8530229e-07
3.4766689e-05
9.8482973e-09
3.6679876e-07
3.4469668e-05
9.8351173e-09
3.5004233e-07
3.4186716e-05
1.0022911e-08
3.3480552e-07
3.3916567e-05
1.0377017e-08
3.2089287e-07
3.3658116e-05
1.0868075e-08
3.0813657e-07
3.3410395e-05
1.1470974e-08
2.9639285e-07
3.3172556e-05
1.216425e-08
2.8553825e-07
3.2943852e-05
1.2929342e-08
2.7546719e-07
3.2723625e-05
1.3750194e-08
2.6608892e-07
3.2511286e-05
1.4613089e-08
2.573257e-07
3.2306316e-05
1.5506276e-08
2.4911064e-07
3.2108246e-05
1.6419595e-08
2.413862e-07
3.1916658e-05
1.7344657e-08
2.3410268e-07
3.1731171e-05
1.8274339e-08
2.2721712e-07
3.1551444e-05
1.920317e-08
2.2069215e-07
3.1377162e-05
2.0127721e-08
2.1449509e-07
3.1208038e-05
2.1048663e-08
2.085968e-07
3.10438e-05
2.1972783e-08
2.0297054e-07
3.0884232e-05
2.2827859e-08
1.9760737e-07
3.0729103e-05
2.3662958e-08
1.9248229e-07
3.05782e-05
2.4490016e-08
1.8757383e-07
3.0431331e-05
2.5296324e-08
1.8286763e-07
3.0288318e-05
2.6077997e-08
1.7835076e-07
3.0148994e-05
2.6834298e-08
1.7401107e-07
3.0013202e-05
2.7564679e-08
1.6983755e-07
2.9880797e-05
2.8268989e-08
1.6582025e-07
2.975164e-05
2.8947423e-08
1.6195011e-07
2.96256e-05
2.9600769e-08
1.5821896e-07
2.9502557e-05
3.0228546e-08
1.5461919e-07
2.9382396e-05
3.0823561e-08
1.5114464e-07
2.9265007e-05
3.1393103e-08
1.4778875e-07
2.9150287e-05
3.1939582e-08
1.4454536e-07
2.9038137e-05
3.2461904e-08
1.4140897e-07
2.8928465e-05
3.2960071e-08
1.3837461e-07
2.8821181e-05
3.343476e-08
1.3543753e-07
2.8716203e-05
3.3886358e-08
1.3259331e-07
2.8613449e-05
3.4315568e-08
1.2983789e-07
2.8512845e-05
3.4722911e-08
1.2716738e-07
2.8414317e-05
3.5109014e-08
1.2457813e-07
2.8317797e-05
3.5474481e-08
1.2206681e-07
2.8223219e-05
3.5819912e-08
1.1963009e-07
2.813052e-05
3.6145916e-08
1.172649e-07
2.803964e-05
3.6453056e-08
1.1496841e-07
2.7950522e-05
3.6741865e-08
1.1273773e-07
2.7863111e-05
3.7012813e-08
1.1057026e-07
2.7777354e-05
3.7266246e-08
1.0846342e-07
2.7693204e-05
3.7502492e-08
1.0641474e-07
2.761061e-05
3.772159e-08
1.0442176e-07
2.752953e-05
3.792354e-08
1.0248201e-07
2.744992e-05
3.8107984e-08
1.0059306e-07
2.7371738e-05
3.8274264e-08
9.8752305e-08
2.7294949e-05
3.8421537e-08
9.695691e-08
2.7219516e-05
3.8548733e-08
9.5203651e-08
2.714541e-05
3.8655105e-08
9.3488605e-08
2.7072603e-05
3.8741173e-08
9.1806959e-08
2.7001079e-05
3.8810279e-08
9.0152328e-08
2.6930832e-05
3.8872147e-08
8.8516569e-08
2.6861876e-05
3.8947423e-08
8.6890532e-08
2.679426e-05
3.907355e-08
8.5269181e-08
2.6728065e-05
3.9306956e-08
8.3675952e-08
2.6663337e-05
3.9708338e-08
8.2271174e-08
2.659956e-05
4.027201e-08
8.1836201e-08
2.6534295e-05
4.0698008e-08
8.455574e-08
3.962081e-08
1.150713e-07
0.00010494757
5.6811081e-07
6.5033076e-06
9.8925416e-05
1.0462983e-06
6.6283517e-06
9.3480449e-05
1.3439844e-06
6.1835065e-06
8.8341777e-05
1.4751324e-06
5.9184762e-06
8.3502084e-05
1.4993911e-06
5.6187065e-06
7.9004057e-05
1.4572411e-06
5.2482679e-06
7.4853978e-05
1.3667382e-06
4.8478757e-06
7.1037378e-05
1.2423973e-06
4.4464569e-06
6.7536063e-05
1.0997693e-06
4.0563128e-06
6.4331998e-05
9.5192361e-07
3.683491e-06
6.1407318e-05
8.0805757e-07
3.3320525e-06
5.8744339e-05
6.7422204e-07
3.0046209e-06
5.6325632e-05
5.5404399e-07
2.7024907e-06
5.4133973e-05
4.4916749e-07
2.4259383e-06
5.2152298e-05
3.59724e-07
2.174536e-06
5.0363747e-05
2.8484515e-07
1.9473718e-06
4.875178e-05
2.2310006e-07
1.7432015e-06
4.7300339e-05
1.7281166e-07
1.5605646e-06
4.5994012e-05
1.3226572e-07
1.3978748e-06
4.4818177e-05
9.9840046e-08
1.2534891e-06
4.3759121e-05
7.4075596e-08
1.1257614e-06
4.2804123e-05
5.3707636e-08
1.0130814e-06
4.1941503e-05
3.7671235e-08
9.1390375e-07
4.1160627e-05
2.5096452e-08
8.2676733e-07
4.0451891e-05
1.5294188e-08
7.5030387e-07
3.980679e-05
7.5281682e-09
6.8329171e-07
3.9217543e-05
1.672757e-09
6.2455202e-07
3.8677513e-05
-3.0331098e-09
5.7313084e-07
3.8180739e-05
-6.6486688e-09
5.2807356e-07
3.7722004e-05
-9.3594759e-09
4.8853452e-07
3.7296777e-05
-1.1371789e-08
4.5378926e-07
3.6901112e-05
-1.281822e-08
4.2319912e-07
3.6531588e-05
-1.3805291e-08
3.962048e-07
3.6185236e-05
-1.4417483e-08
3.7231873e-07
3.5859491e-05
-1.4721879e-08
3.5111776e-07
3.5552132e-05
-1.477263e-08
3.3223576e-07
3.5261237e-05
-1.4613919e-08
3.1535726e-07
3.4985143e-05
-1.4282176e-08
3.0021087e-07
3.472241e-05
-1.3807689e-08
2.8656375e-07
3.4471787e-05
-1.3215921e-08
2.7421632e-07
3.4232185e-05
-1.2528185e-08
2.6299771e-07
3.4002657e-05
-1.1762772e-08
2.5276175e-07
3.3782373e-05
-1.0935201e-08
2.4338336e-07
3.3570606e-05
-1.0058747e-08
2.3475556e-07
3.3366714e-05
-9.144739e-09
2.2678673e-07
3.3170131e-05
-8.2027991e-09
2.1939836e-07
3.2980356e-05
-7.2412313e-09
2.1252299e-07
3.279694e-05
-6.2668577e-09
2.0610283e-07
3.2619482e-05
-5.2855167e-09
2.0008785e-07
3.2447623e-05
-4.3018114e-09
1.944348e-07
3.228104e-05
-3.3190478e-09
1.8910587e-07
3.2119438e-05
-2.338326e-09
1.8406732e-07
3.1962554e-05
-1.3530348e-09
1.7928646e-07
3.1810075e-05
-2.7631415e-10
1.7472764e-07
3.1661878e-05
5.8584116e-10
1.7043905e-07
3.1517732e-05
1.4356384e-09
1.6637296e-07
3.1377429e-05
2.3038619e-09
1.624896e-07
3.1240792e-05
3.1586426e-09
1.5877484e-07
3.1107656e-05
3.9969963e-09
1.5521718e-07
3.0977867e-05
4.8171773e-09
1.5180548e-07
3.0851284e-05
5.6179893e-09
1.4852967e-07
3.0727773e-05
6.3990651e-09
1.4538076e-07
3.0607209e-05
7.160966e-09
1.4235051e-07
3.0489473e-05
7.9059335e-09
1.3943117e-07
3.037445e-05
8.635767e-09
1.3661575e-07
3.0262049e-05
9.3206676e-09
1.3390396e-07
3.0152163e-05
9.9937931e-09
1.3128566e-07
3.0044697e-05
1.065039e-08
1.2875515e-07
2.9939564e-05
1.128674e-08
1.2630827e-07
2.983668e-05
1.1903227e-08
1.239409e-07
2.9735965e-05
1.2500196e-08
1.2164884e-07
2.9637345e-05
1.3077904e-08
1.1942844e-07
2.9540748e-05
1.3636732e-08
1.1727619e-07
2.9446105e-05
1.4177024e-08
1.1518882e-07
2.9353352e-05
1.4699169e-08
1.1316337e-07
2.9262425e-05
1.5203561e-08
1.1119703e-07
2.9173268e-05
1.5690497e-08
1.0928707e-07
2.9085822e-05
1.6160417e-08
1.0743107e-07
2.9000035e-05
1.6613584e-08
1.0562666e-07
2.8915855e-05
1.70504e-08
1.0387152e-07
2.8833233e-05
1.7471083e-08
1.0216362e-07
2.8752123e-05
1.7875941e-08
1.005008e-07
2.8672479e-05
1.8265112e-08
9.8881101e-08
2.8594259e-05
1.8638582e-08
9.7302519e-08
2.8517424e-05
1.8996258e-08
9.5762977e-08
2.8441934e-05
1.9337815e-08
9.4260355e-08
2.8367753e-05
1.9662789e-08
9.279234e-08
2.8294848e-05
1.9970469e-08
9.135625e-08
2.8223187e-05
2.0259999e-08
8.9948852e-08
2.8152746e-05
2.0530707e-08
8.8565936e-08
2.8083503e-05
2.0782618e-08
8.7201795e-08
2.8015447e-05
2.1017541e-08
8.5848704e-08
2.7948582e-05
2.1240729e-08
8.4495837e-08
2.7882937e-05
2.1462751e-08
8.3129498e-08
2.7818574e-05
2.1699998e-08
8.1736496e-08
2.7755588e-05
2.1969317e-08
8.0324353e-08
2.7694014e-05
2.226616e-08
7.9016088e-08
2.7633299e-05
2.2506265e-08
7.8480658e-08
2.7571004e-05
2.2393424e-08
8.0599456e-08
2.0993105e-08
1.0779946e-07
0.00010489986
2.7443376e-07
6.5049155e-06
9.8802772e-05
5.0716633e-07
6.6362236e-06
9.329591e-05
6.5854975e-07
6.1922972e-06
8.8116302e-05
7.2902547e-07
5.9257148e-06
8.3248198e-05