/*--------------------------------*- C++ -*----------------------------------*\
  =========                 |
  \\      /  F ield         | OpenFOAM: The Open Source CFD Toolbox
   \\    /   O peration     | Website:  https://openfoam.org
    \\  /    A nd           | Version:  7
     \\/     M anipulation  |
\*---------------------------------------------------------------------------*/
FoamFile
{
    version     2.0;
    format      ascii;
    class       surfaceScalarField;
    location    "1700/water";
    object      phi;
}
// * * * * * * * * * * * * * * * * * * * * * * * * * * * * * * * * * * * * * //

dimensions      [1 0 -1 0 0 0 0];

internalField   nonuniform List<scalar> 
156660
(
9.9057239e-05
6.0010402e-06
6.0528092e-06
8.6847498e-05
6.0555113e-06
6.1542307e-06
7.5687891e-05
5.5111363e-06
5.6484701e-06
6.5441704e-05
5.0404181e-06
5.2057689e-06
5.6267661e-05
4.4956436e-06
4.6783991e-06
4.8318019e-05
3.8797648e-06
4.0698777e-06
4.1624776e-05
3.2524448e-06
3.4407981e-06
3.6124897e-05
2.660462e-06
2.839417e-06
3.1692235e-05
2.1345127e-06
2.2981489e-06
2.8162841e-05
1.6926975e-06
1.8366964e-06
2.5361437e-05
1.3399933e-06
1.4614113e-06
2.3124664e-05
1.0698477e-06
1.1669256e-06
2.1315127e-05
8.6875418e-07
9.4078227e-07
1.9825714e-05
7.2110062e-07
7.6831273e-07
1.8577278e-05
6.1248245e-07
6.3595306e-07
1.7513255e-05
5.312522e-07
5.3277148e-07
1.6593744e-05
4.6879727e-07
4.5071346e-07
1.5790433e-05
4.191372e-07
3.8417386e-07
1.5082784e-05
3.782907e-07
3.2935849e-07
1.4455417e-05
3.4367126e-07
2.8369562e-07
1.3896409e-05
3.1361409e-07
2.4539333e-07
1.339622e-05
2.8704449e-07
2.1314453e-07
1.2947015e-05
2.632603e-07
1.859451e-07
1.2542237e-05
2.4179368e-07
1.6298463e-07
1.2176318e-05
2.2232209e-07
1.435969e-07
1.1844484e-05
2.0461483e-07
1.2721881e-07
1.1542609e-05
1.8849494e-07
1.1337976e-07
1.1267116e-05
1.7381574e-07
1.0167795e-07
1.1014892e-05
1.6046272e-07
9.1760837e-08
1.0783252e-05
1.4833971e-07
8.3300607e-08
1.0569851e-05
1.3734905e-07
7.6052139e-08
1.0372614e-05
1.2738863e-07
6.9848342e-08
1.0189731e-05
1.1836809e-07
6.4514839e-08
1.001963e-05
1.1020448e-07
5.9896625e-08
9.8609388e-06
1.0281922e-07
5.5871646e-08
9.7124594e-06
9.6137942e-08
5.2341377e-08
9.5731439e-06
9.0091151e-08
4.9224346e-08
9.4420759e-06
8.4614441e-08
4.6453538e-08
9.3184531e-06
7.964865e-08
4.3974084e-08
9.2015723e-06
7.5139734e-08
4.1741071e-08
9.0908166e-06
7.1038137e-08
3.9717572e-08
8.9856431e-06
6.7301124e-08
3.7872334e-08
8.8855707e-06
6.3894267e-08
3.6178171e-08
8.7901757e-06
6.0780104e-08
3.4614962e-08
8.6990829e-06
5.7926185e-08
3.3166627e-08
8.611959e-06
5.5303708e-08
3.1820122e-08
8.5285072e-06
5.2887463e-08
3.05644e-08
8.4484619e-06
5.0655061e-08
2.9390313e-08
8.3715848e-06
4.8587037e-08
2.8289995e-08
8.2976614e-06
4.6666204e-08
2.7257211e-08
8.2264975e-06
4.487748e-08
2.6286422e-08
8.1579202e-06
4.3208778e-08
2.5368524e-08
8.0917731e-06
4.1649012e-08
2.4498052e-08
8.0279107e-06
4.0186979e-08
2.3675376e-08
7.9662005e-06
3.8812658e-08
2.2897552e-08
7.9065219e-06
3.7518373e-08
2.2160256e-08
7.8487639e-06
3.6297878e-08
2.1460165e-08
7.7928241e-06
3.5145154e-08
2.0794617e-08
7.7386083e-06
3.4054673e-08
2.0161159e-08
7.6860293e-06
3.3021337e-08
1.955768e-08
7.6350062e-06
3.2040803e-08
1.8982246e-08
7.5854641e-06
3.1109071e-08
1.8433079e-08
7.537333e-06
3.0222622e-08
1.7908476e-08
7.4905478e-06
2.9378243e-08
1.7406995e-08
7.4450476e-06
2.8573016e-08
1.6927168e-08
7.4007756e-06
2.7804251e-08
1.6467769e-08
7.3576783e-06
2.7069612e-08
1.6027658e-08
7.3157056e-06
2.6367077e-08
1.5605633e-08
7.2748103e-06
2.5694672e-08
1.5200669e-08
7.2349479e-06
2.5050544e-08
1.4811832e-08
7.1960767e-06
2.4433082e-08
1.4438172e-08
7.158157e-06
2.3840678e-08
1.407893e-08
7.1211518e-06
2.327192e-08
1.3733292e-08
7.0850258e-06
2.2725463e-08
1.3400516e-08
7.0497456e-06
2.2200186e-08
1.3079934e-08
7.0152798e-06
2.1694906e-08
1.2770889e-08
6.9815985e-06
2.120857e-08
1.2472745e-08
6.9486733e-06
2.0740244e-08
1.2184909e-08
6.9164776e-06
2.0288989e-08
1.1906801e-08
6.8849857e-06
1.9853946e-08
1.1637827e-08
6.8541739e-06
1.9434385e-08
1.1377459e-08
6.8240194e-06
1.9029463e-08
1.1125107e-08
6.7945006e-06
1.8638491e-08
1.0880235e-08
6.7655975e-06
1.8260762e-08
1.0642302e-08
6.7372913e-06
1.7895538e-08
1.0410751e-08
6.709564e-06
1.7542089e-08
1.0185094e-08
6.6823995e-06
1.719962e-08
9.964863e-09
6.6557824e-06
1.6867289e-08
9.7498409e-09
6.6296983e-06
1.6544139e-08
9.5399873e-09
6.6041331e-06
1.6229244e-08
9.3360141e-09
6.5790714e-06
1.592196e-08
9.139671e-09
6.554494e-06
1.5622307e-08
8.9550838e-09
6.5303708e-06
1.5332543e-08
8.7906504e-09
6.5066467e-06
1.5060453e-08
8.6635996e-09
6.4832094e-06
1.4827797e-08
8.609529e-09
6.4598103e-06
1.4693066e-08
8.7060114e-09
6.4358387e-06
1.4826379e-08
9.1451595e-09
6.4096302e-06
1.5741758e-08
1.0466763e-08
6.3782854e-06
1.8026563e-08
1.3318209e-08
3.2300217e-08
2.7923519e-08
0.00010646494
4.1872385e-06
6.4599816e-06
0.0001002019
5.695418e-06
6.6231353e-06
9.3659588e-05
5.7790389e-06
6.2744098e-06
8.7011589e-05
5.6514782e-06
6.0369386e-06
8.0422927e-05
5.366912e-06
5.7173941e-06
7.4094022e-05
4.9022832e-06
5.3063863e-06
6.8167026e-05
4.3278135e-06
4.8516272e-06
6.2722565e-05
3.717891e-06
4.387032e-06
5.7799049e-05
3.1243144e-06
3.9337144e-06
5.3403345e-05
2.5820689e-06
3.5063328e-06
4.9517402e-05
2.1121062e-06
3.1138299e-06
4.6105482e-05
1.7220197e-06
2.7597474e-06
4.3121558e-05
1.4089354e-06
2.4437429e-06
4.0515558e-05
1.1637552e-06
2.163346e-06
3.8237948e-05
9.7485849e-07
1.9152336e-06
3.6242683e-05
8.3055978e-07
1.6959573e-06
3.4488759e-05
7.2043697e-07
1.5022848e-06
3.2940716e-05
6.3586297e-07
1.3313172e-06
3.1568463e-05
5.7005002e-07
1.1804931e-06
3.0346733e-05
5.1784899e-07
1.0475522e-06
2.9254398e-05
4.7545953e-07
9.3049034e-07
2.8273782e-05
4.4013958e-07
8.2752022e-07
2.7390054e-05
4.099489e-07
7.3704007e-07
2.6590699e-05
3.8353953e-07
6.5760859e-07
2.5865102e-05
3.5998889e-07
5.8793072e-07
2.5204197e-05
3.3867632e-07
5.2684261e-07
2.4600205e-05
3.191836e-07
4.7330349e-07
2.4046429e-05
3.0120191e-07
4.2639016e-07
2.3537073e-05
2.8455204e-07
3.8526716e-07
2.3067119e-05
2.6911099e-07
3.491824e-07
2.2632208e-05
2.5478168e-07
3.1747787e-07
2.2228528e-05
2.4147381e-07
2.8959533e-07
2.1852744e-05
2.2911073e-07
2.6504125e-07
2.1501947e-05
2.1762895e-07
2.4337255e-07
2.1173591e-05
2.0696954e-07
2.2420569e-07
2.0865444e-05
1.9707569e-07
2.0720866e-07
2.0575549e-05
1.8789252e-07
1.9209396e-07
2.0302183e-05
1.7936725e-07
1.7861342e-07
2.0043829e-05
1.7144908e-07
1.665532e-07
1.979915e-05
1.6408984e-07
1.5572939e-07
1.956696e-05
1.5724381e-07
1.4598401e-07
1.934621e-05
1.5086894e-07
1.3718217e-07
1.9135969e-05
1.4492654e-07
1.2920887e-07
1.8935407e-05
1.3937908e-07
1.2196307e-07
1.8743783e-05
1.3419234e-07
1.1535762e-07
1.8560435e-05
1.2933511e-07
1.0931729e-07
1.8384766e-05
1.2477908e-07
1.0377716e-07
1.8216241e-05
1.2049852e-07
9.8681276e-08
1.8054377e-05
1.1647014e-07
9.3981317e-08
1.7898734e-05
1.126729e-07
8.9635413e-08
1.7748917e-05
1.0908825e-07
8.5607004e-08
1.7604563e-05
1.0570004e-07
8.1862409e-08
1.7465345e-05
1.0249338e-07
7.8373278e-08
1.7330962e-05
9.9452986e-08
7.5117002e-08
1.7201138e-05
9.6564393e-08
7.2072725e-08
1.7075619e-05
9.381663e-08
6.9221153e-08
1.695417e-05
9.1201104e-08
6.654512e-08
1.6836577e-05
8.8709099e-08
6.4029568e-08
1.6722638e-05
8.6331951e-08
6.1661088e-08
1.661217e-05
8.4061735e-08
5.9427691e-08
1.6505001e-05
8.1891516e-08
5.7318801e-08
1.640097e-05
7.9814928e-08
5.5324853e-08
1.6299929e-05
7.7826177e-08
5.3437128e-08
1.620174e-05
7.591989e-08
5.1647919e-08
1.6106272e-05
7.4091048e-08
4.9950118e-08
1.6013404e-05
7.2334994e-08
4.8337386e-08
1.5923022e-05
7.0647709e-08
4.6803873e-08
1.5835019e-05
6.9025699e-08
4.534428e-08
1.5749294e-05
6.7465533e-08
4.3953715e-08
1.5665753e-05
6.5963772e-08
4.2627694e-08
1.5584307e-05
6.4517329e-08
4.1362181e-08
1.5504871e-05
6.312341e-08
4.0153387e-08
1.5427365e-05
6.1779287e-08
3.8997788e-08
1.5351716e-05
6.048255e-08
3.7892266e-08
1.5277852e-05
5.9230814e-08
3.6833841e-08
1.5205705e-05
5.8021985e-08
3.5819752e-08
1.5135212e-05
5.6854025e-08
3.4847381e-08
1.5066313e-05
5.5724967e-08
3.3914361e-08
1.499895e-05
5.4633113e-08
3.3018434e-08
1.493307e-05
5.3576712e-08
3.2157445e-08
1.4868621e-05
5.2554195e-08
3.1329413e-08
1.4805554e-05
5.1563973e-08
3.0532446e-08
1.4743823e-05
5.0604503e-08
2.9764686e-08
1.4683386e-05
4.9674315e-08
2.9024362e-08
1.4624199e-05
4.8771826e-08
2.8309889e-08
1.4566226e-05
4.7895435e-08
2.7619547e-08
1.4509431e-05
4.7043516e-08
2.6951984e-08
1.4453778e-05
4.6214095e-08
2.6305781e-08
1.4399237e-05
4.5405397e-08
2.5679881e-08
1.4345777e-05
4.4615707e-08
2.5073791e-08
1.4293367e-05
4.3844242e-08
2.4487708e-08
1.4241972e-05
4.3092879e-08
2.3923752e-08
1.4191548e-05
4.2369901e-08
2.3387135e-08
1.4142019e-05
4.1699307e-08
2.2889613e-08
1.4093249e-05
4.1141606e-08
2.2456614e-08
1.4044951e-05
4.0844647e-08
2.2146533e-08
1.3996485e-05
4.116918e-08
2.212299e-08
1.3946229e-05
4.3012292e-08
2.2985405e-08
1.389015e-05
4.8540205e-08
2.5565806e-08
6.3281531e-08
5.0000868e-08
0.00010603565
2.7876425e-06
6.4750379e-06
0.00010074799
4.4145413e-06
6.5685292e-06
9.5493515e-05
4.8594028e-06
6.1741158e-06
9.0256432e-05
4.930369e-06
5.9581921e-06
8.5101366e-05
4.8311767e-06
5.6908012e-06
8.0102875e-05
4.5561761e-06
5.3445981e-06
7.5322251e-05
4.1469521e-06
4.9614853e-06
7.0803266e-05
3.6678925e-06
4.5689837e-06
6.6576264e-05
3.1701903e-06
4.1811254e-06
6.2660725e-05
2.6900109e-06
3.8075975e-06
5.9065443e-05
2.2519318e-06
3.4554566e-06
5.5788936e-05
1.8697304e-06
3.1287958e-06
5.2820978e-05
1.5477473e-06
2.8291458e-06
5.014479e-05
1.2836302e-06
2.5563139e-06
4.7739304e-05
1.07123e-06
2.3091141e-06
4.5581183e-05
9.0281506e-07
2.085866e-06
4.3646423e-05
7.7048778e-07
1.884709e-06
4.1911533e-05
6.6697374e-07
1.7037792e-06
4.0354306e-05
5.8598195e-07
1.541295e-06
3.8954268e-05
5.2230218e-07
1.3955849e-06
3.769288e-05
4.7175602e-07
1.265091e-06
3.6553576e-05
4.3107982e-07
1.1483634e-06
3.552169e-05
3.9778204e-07
1.0440533e-06
3.4584322e-05
3.6999882e-07
9.5090832e-07
3.3730181e-05
3.4635985e-07
8.6777015e-07
3.2949411e-05
3.2587763e-07
7.9356873e-07
3.2233419e-05
3.078405e-07
7.2733486e-07
3.1574711e-05
2.9172984e-07
6.6818105e-07
3.0966769e-05
2.7719267e-07
6.1530129e-07
3.0403928e-05
2.63981e-07
5.6797019e-07
2.9881258e-05
2.5190845e-07
5.2554316e-07
2.9394455e-05
2.4082712e-07
4.8745e-07
2.8939761e-05
2.3062159e-07
4.5318328e-07
2.8513895e-05
2.2120152e-07
4.2229385e-07
2.8113985e-05
2.1249196e-07
3.9438674e-07
2.7737518e-05
2.0442797e-07
3.6911488e-07
2.7382285e-05
1.9695196e-07
3.4617384e-07
2.7046344e-05
1.9001177e-07
3.2529679e-07
2.6727982e-05
1.8355996e-07
3.0625044e-07
2.6425689e-05
1.7755273e-07
2.8883086e-07
2.6138123e-05
1.7195e-07
2.7285984e-07
2.5864094e-05
1.6671516e-07
2.5818183e-07
2.5602546e-05
1.6181457e-07
2.446609e-07
2.535253e-05
1.5721708e-07
2.3217764e-07
2.51132e-05
1.5289442e-07
2.2062725e-07
2.4883797e-05
1.4882095e-07
2.0991774e-07
2.4663634e-05
1.4497366e-07
1.9996813e-07
2.4452094e-05
1.4133184e-07
1.9070705e-07
2.4248615e-05
1.3787698e-07
1.8207153e-07
2.405269e-05
1.3459268e-07
1.7400572e-07
2.3863854e-05
1.3146461e-07
1.6645988e-07
2.3681684e-05
1.2848056e-07
1.5938925e-07
2.3505794e-05
1.2562917e-07
1.527541e-07
2.3335829e-05
1.2289864e-07
1.465197e-07
2.3171462e-05
1.2027635e-07
1.4065461e-07
2.3012394e-05
1.1775471e-07
1.351302e-07
2.2858345e-05
1.153297e-07
1.2992042e-07
2.2709057e-05
1.129954e-07
1.2500174e-07
2.2564291e-05
1.107452e-07
1.203529e-07
2.2423824e-05
1.0857347e-07
1.159546e-07
2.2287451e-05
1.0647548e-07
1.1178923e-07
2.2154978e-05
1.0444701e-07
1.0784082e-07
2.2026226e-05
1.0248421e-07
1.0409458e-07
2.1901025e-05
1.0058351e-07
1.0053715e-07
2.1779218e-05
9.8741544e-08
9.7156149e-08
2.1660658e-05
9.6954896e-08
9.3940256e-08
2.1545205e-05
9.5221258e-08
9.0879044e-08
2.1432729e-05
9.3538787e-08
8.7962804e-08
2.1323107e-05
9.1905305e-08
8.5182609e-08
2.1216222e-05
9.0318523e-08
8.2530194e-08
2.1111965e-05
8.8776383e-08
7.9997888e-08
2.1010233e-05
8.7277094e-08
7.757864e-08
2.0910927e-05
8.5818983e-08
7.5265861e-08
2.0813956e-05
8.4400348e-08
7.305343e-08
2.0719232e-05
8.301969e-08
7.0935658e-08
2.0626671e-05
8.1675621e-08
6.8907184e-08
2.0536195e-05
8.0366811e-08
6.6963124e-08
2.0447729e-05
7.9091998e-08
6.5098771e-08
2.0361203e-05
7.7849821e-08
6.3309779e-08
2.0276548e-05
7.6639205e-08
6.1592037e-08
2.0193702e-05
7.5458993e-08
5.994176e-08
2.0112602e-05
7.4307959e-08
5.8355254e-08
2.0033193e-05
7.3184952e-08
5.682906e-08
1.9955419e-05
7.2088625e-08
5.5359952e-08
1.9879228e-05
7.1017612e-08
5.3944856e-08
1.9804572e-05
6.9970439e-08
5.258074e-08
1.9731406e-05
6.8945242e-08
5.1264792e-08
1.9659685e-05
6.7940115e-08
4.9994419e-08
1.9589371e-05
6.6953018e-08
4.8767044e-08
1.9520423e-05
6.5982353e-08
4.7580537e-08
1.9452807e-05
6.5028036e-08
4.6433098e-08
1.9386482e-05
6.4094117e-08
4.5323742e-08
1.9321404e-05
6.3194692e-08
4.4253061e-08
1.9257511e-05
6.2366329e-08
4.3225225e-08
1.9194705e-05
6.1695144e-08
4.2253128e-08
1.9132798e-05
6.1374061e-08
4.1377377e-08
1.9071394e-05
6.1822417e-08
4.075066e-08
1.9009424e-05
6.3924748e-08
4.1057574e-08
1.8944661e-05
6.9304694e-08
4.3998855e-08
7.9170948e-08
7.4661546e-08
0.0001054937
1.9169871e-06
6.4880407e-06
0.00010005365
3.2729596e-06
6.5816334e-06
9.4926077e-05
3.8288995e-06
6.1580776e-06
8.9946373e-05
3.9838109e-06
5.9262629e-06
8.5163276e-05
3.9595077e-06
5.6547657e-06
8.0619137e-05
3.7899368e-06
5.3103784e-06
7.6329462e-05
3.5015547e-06
4.9350725e-06
7.230016e-05
3.1412013e-06
4.5559928e-06
6.8534206e-05
2.7514802e-06
4.184664e-06
6.5032983e-05
2.3633493e-06
3.8278853e-06
6.1795789e-05
1.9984143e-06
3.490711e-06
5.8818843e-05
1.6703759e-06
3.176301e-06
5.6094717e-05
1.3858295e-06
2.886043e-06
5.3612488e-05
1.1457945e-06
2.6200649e-06
5.1358373e-05
9.4764118e-07
2.3777043e-06
4.9316593e-05
7.8676783e-07
2.1578272e-06
4.7470246e-05
6.5779543e-07
1.9590391e-06
4.5802069e-05
5.5532538e-07
1.7798252e-06
4.4295042e-05
4.7437113e-07
1.6186378e-06
4.293283e-05
4.1056662e-07
1.473948e-06
4.1700078e-05
3.6023233e-07
1.3442759e-06
4.0582591e-05
3.2035738e-07
1.2282094e-06
3.956742e-05
2.8853733e-07
1.1244154e-06
3.8642881e-05
2.6289065e-07
1.0316467e-06
3.7798527e-05
2.4196984e-07
9.4874401e-07
3.7025076e-05
2.2467704e-07
8.7465171e-07
3.6314324e-05
2.1018902e-07
8.084041e-07
3.5659057e-05
1.9788604e-07
7.4911042e-07
3.5052961e-05
1.8731581e-07
6.9597283e-07
3.4490519e-05
1.781487e-07
6.482738e-07
3.3966922e-05
1.7013167e-07
6.053744e-07
3.3477973e-05
1.6306725e-07
5.6670865e-07
3.3020016e-05
1.5680297e-07
5.3177541e-07
3.2589865e-05
1.5122053e-07
5.0013246e-07
3.218474e-05
1.4622562e-07
4.7139137e-07
3.1802215e-05
1.4174075e-07
4.4521235e-07
3.1440168e-05
1.3770096e-07
4.212981e-07
3.1096739e-05
1.3405095e-07
3.9938922e-07
3.0770297e-05
1.3074292e-07
3.7925953e-07
3.0459402e-05
1.2773516e-07
3.6071194e-07
3.0162787e-05
1.2499092e-07
3.435748e-07
2.9879325e-05
1.2247786e-07
3.2769851e-07
2.960802e-05
1.2016736e-07
3.1295271e-07
2.934798e-05
1.1803383e-07
2.9922353e-07
2.9098408e-05
1.1605463e-07
2.864114e-07
2.885859e-05
1.1420983e-07
2.7442907e-07
2.8627882e-05
1.1248192e-07
2.6319995e-07
2.8405701e-05
1.1085559e-07
2.5265683e-07
2.819152e-05
1.0931758e-07
2.427402e-07
2.7984859e-05
1.0785647e-07
2.3339754e-07
2.7785279e-05
1.0646276e-07
2.245821e-07
2.7592378e-05
1.0512871e-07
2.1625215e-07
2.740579e-05
1.0384735e-07
2.0837036e-07
2.7225174e-05
1.0261117e-07
2.0090358e-07
2.705022e-05
1.0140744e-07
1.9382259e-07
2.6880641e-05
1.0023381e-07
1.8710042e-07
2.6716166e-05
9.9092331e-08
1.8071223e-07
2.6556546e-05
9.7979988e-08
1.7463557e-07
2.6401548e-05
9.6892536e-08
1.6885015e-07
2.6250957e-05
9.5827077e-08
1.6333742e-07
2.610457e-05
9.4781669e-08
1.5808045e-07
2.5962199e-05
9.3754728e-08
1.5306362e-07
2.5823666e-05
9.2744872e-08
1.4827257e-07
2.5688804e-05
9.1750987e-08
1.4369411e-07
2.5557458e-05
9.0771789e-08
1.3931595e-07
2.5429481e-05
8.9805196e-08
1.3512691e-07
2.5304734e-05
8.8851486e-08
1.3111646e-07
2.5183087e-05
8.7911237e-08
1.2727467e-07
2.5064416e-05
8.698391e-08
1.2359241e-07
2.4948604e-05
8.6068885e-08
1.2006118e-07
2.4835542e-05
8.5165785e-08
1.1667301e-07
2.4725124e-05
8.4274325e-08
1.1342048e-07
2.4617252e-05
8.3394262e-08
1.1029657e-07
2.4511832e-05
8.2525456e-08
1.0729478e-07
2.4408775e-05
8.166775e-08
1.04409e-07
2.4307997e-05
8.0820942e-08
1.0163346e-07
2.4209416e-05
7.9984964e-08
9.8962642e-08
2.4112956e-05
7.9159742e-08
9.6391544e-08
2.4018546e-05
7.8345049e-08
9.3915289e-08
2.3926115e-05
7.7540724e-08
9.1529297e-08
2.3835598e-05
7.674657e-08
8.922927e-08
2.3746933e-05
7.5962322e-08
8.7011036e-08
2.366006e-05
7.5187628e-08
8.4870702e-08
2.3574922e-05
7.4421977e-08
8.2804547e-08
2.3491466e-05
7.3664656e-08
8.0808957e-08
2.3409641e-05
7.2914616e-08
7.8880373e-08
2.33294e-05
7.21707e-08
7.7015531e-08
2.3250698e-05
7.1431336e-08
7.5211046e-08
2.3173493e-05
7.0694901e-08
7.3463659e-08
2.3097745e-05
6.996022e-08
7.1770097e-08
2.3023418e-05
6.9227991e-08
7.0127059e-08
2.2950477e-05
6.8503514e-08
6.8531196e-08
2.2878889e-05
6.7802894e-08
6.6979695e-08
2.2808619e-05
6.7165061e-08
6.547157e-08
2.2739625e-05
6.667525e-08
6.401333e-08
2.267185e-05
6.6507083e-08
6.2642322e-08
2.2605149e-05
6.6990752e-08
6.1532351e-08
2.2538888e-05
6.8686026e-08
6.1499853e-08
2.2471121e-05
7.2226964e-08
6.4845129e-08
7.6722842e-08
9.8461307e-08
0.0001051979
1.3340884e-06
6.4961221e-06
9.9496561e-05
2.3731022e-06
6.6011947e-06
9.4262459e-05
2.9019223e-06
6.1610799e-06
8.9251186e-05
3.0856641e-06
5.9094196e-06
8.4493497e-05
3.0947347e-06
5.6224614e-06
8.0033635e-05
2.9846657e-06
5.2651341e-06
7.5876907e-05
2.7790155e-06
4.8792667e-06
7.2014635e-05
2.5106843e-06
4.4927895e-06
6.8436293e-05
2.2128728e-06
4.1169489e-06
6.5131387e-05
1.9107259e-06
3.7575292e-06
6.208941e-05
1.621732e-06
3.4186596e-06
5.9299432e-05
1.3573877e-06
3.1029661e-06
5.6749589e-05
1.1240344e-06
2.8116386e-06
5.4426788e-05
9.2377944e-07
2.5448158e-06
5.2316754e-05
7.55728e-07
2.3019466e-06
5.0404313e-05
6.1717854e-07
2.0820302e-06
4.8673788e-05
5.0454346e-07
1.8837772e-06
4.7109414e-05
4.1397176e-07
1.7057274e-06
4.5695713e-05
3.4173646e-07
1.5463363e-06
4.4417792e-05
2.844514e-07
1.4040359e-06
4.3261575e-05
2.3917111e-07
1.2772781e-06
4.2213952e-05
2.0341501e-07
1.1645652e-06
4.1262871e-05
1.7514742e-07
1.0644719e-06
4.039737e-05
1.5273235e-07
9.75659e-07
3.9607583e-05
1.3487529e-07
8.9688144e-07
3.8884688e-05
1.2055569e-07
8.270164e-07
3.8220848e-05
1.0901092e-07
7.6501854e-07
3.7609155e-05
9.9633837e-08
7.0994489e-07
3.7043542e-05
9.1977452e-08
6.6095089e-07
3.6518702e-05
8.5705804e-08
6.1728288e-07
3.6030009e-05
8.0552367e-08
5.7827308e-07
3.5573433e-05
7.6308276e-08
5.4333414e-07
3.5145475e-05
7.2811288e-08
5.119503e-07
3.4743091e-05
6.993414e-08
4.8367026e-07
3.4363641e-05
6.757541e-08
4.5810066e-07
3.4004828e-05
6.5652885e-08
4.3489999e-07
3.3664659e-05
6.4098593e-08
4.1377211e-07
3.3341393e-05
6.2855931e-08
3.9446092e-07
3.3033513e-05
6.1877041e-08
3.7674529e-07
3.2739693e-05
6.112109e-08
3.6043425e-07
3.2458768e-05
6.0553075e-08
3.4536329e-07
3.2189712e-05
6.0142662e-08
3.3139054e-07
3.1931622e-05
5.9863633e-08
3.1839378e-07
3.1683696e-05
5.969313e-08
3.0626736e-07
3.1445219e-05
5.9611219e-08
2.9492016e-07
3.1215555e-05
5.9600649e-08
2.8427319e-07
3.0994132e-05
5.964655e-08
2.7425808e-07
3.0780436e-05
5.9736178e-08
2.648154e-07
3.0574002e-05
5.985867e-08
2.5589334e-07
3.0374407e-05
6.0004924e-08
2.4744661e-07
3.0181267e-05
6.0167623e-08
2.3943547e-07
2.9994229e-05
6.0341233e-08
2.3182488e-07
2.9812971e-05
6.0521801e-08
2.2458373e-07
2.9637193e-05
6.0704473e-08
2.1768454e-07
2.9466629e-05
6.0867277e-08
2.1110458e-07
2.9301024e-05
6.1016987e-08
2.0482179e-07
2.914014e-05
6.1160889e-08
1.9881568e-07
2.8983756e-05
6.1294939e-08
1.9306836e-07
2.8831669e-05
6.1415439e-08
1.8756388e-07
2.8683688e-05
6.1520953e-08
1.8228764e-07
2.8539633e-05
6.1610572e-08
1.7722636e-07
2.8399336e-05
6.1683807e-08
1.7236781e-07
2.8262639e-05
6.1740478e-08
1.6770088e-07
2.8129394e-05
6.1780673e-08
1.632152e-07
2.7999461e-05
6.1803878e-08
1.5890119e-07
2.7872709e-05
6.1807401e-08
1.5475034e-07
2.7749012e-05
6.1793583e-08
1.5075441e-07
2.7628253e-05
6.1764827e-08
1.4690557e-07
2.7510319e-05
6.1720989e-08
1.4319661e-07
2.7395105e-05
6.1662102e-08
1.3962084e-07
2.728251e-05
6.1588623e-08
1.36172e-07
2.7172439e-05
6.1501041e-08
1.3284423e-07
2.7064802e-05
6.1399972e-08
1.2963192e-07
2.6959511e-05
6.1285903e-08
1.265299e-07
2.6856486e-05
6.1159488e-08
1.2353325e-07
2.6755649e-05
6.1021286e-08
1.2063731e-07
2.6656924e-05
6.0871825e-08
1.1783768e-07
2.6560242e-05
6.0711678e-08
1.1513014e-07
2.6465535e-05
6.0541379e-08
1.1251076e-07
2.6372738e-05
6.0361286e-08
1.0997577e-07
2.6281792e-05
6.0171946e-08
1.0752157e-07
2.6192636e-05
5.9973549e-08
1.0514468e-07
2.6105215e-05
5.9766325e-08
1.0284184e-07
2.6019477e-05
5.9550277e-08
1.0060973e-07
2.5935371e-05
5.9325174e-08
9.8445302e-08
2.585285e-05
5.9090526e-08
9.6345413e-08
2.5771868e-05
5.884549e-08
9.4306961e-08
2.5692384e-05
5.8588982e-08
9.2326771e-08
2.5614357e-05
5.8319801e-08
9.0401448e-08
2.5537753e-05
5.8037073e-08
8.8527335e-08
2.5462539e-05
5.7741645e-08
8.6700227e-08
2.5388689e-05
5.7438404e-08
8.4915154e-08
2.5316184e-05
5.7141409e-08
8.3166598e-08
2.5245017e-05
5.6882591e-08
8.1449599e-08
2.51752e-05
5.6726046e-08
7.9765818e-08
2.510677e-05
5.6787908e-08
7.814918e-08
2.5039729e-05
5.7251598e-08
7.6780964e-08
2.4973573e-05
5.8330941e-08
7.6510194e-08
2.4906079e-05
5.9989493e-08
7.9732155e-08
6.0714997e-08
1.1287824e-07
0.00010503672
9.0789369e-07
6.5005614e-06
9.9140653e-05
1.6524913e-06
6.6166802e-06
9.3788329e-05
2.0825241e-06
6.1717217e-06
8.8708526e-05
2.2549374e-06
5.91053e-06
8.3909682e-05
2.278404e-06
5.6151748e-06
7.9437109e-05
2.2074821e-06
5.2497564e-06
7.5296201e-05
2.0645348e-06
4.8553893e-06
7.1474034e-05
1.8722543e-06
4.460597e-06
6.7955013e-05
1.6547667e-06
4.0771269e-06
6.4723621e-05
1.4313505e-06
3.7107669e-06
6.1764423e-05
1.2154297e-06
3.3655007e-06
5.9062056e-05
1.015864e-06
3.0438911e-06
5.6601108e-05
8.3782742e-07
2.7471548e-06
5.4365944e-05
6.8344647e-07
2.475497e-06
5.2340648e-05
5.5258529e-07
2.2284384e-06
5.0509125e-05
4.4366547e-07
2.0050361e-06
4.8855299e-05
3.5433454e-07
1.8040352e-06
4.7363353e-05
2.8193587e-07
1.6239821e-06
4.6017963e-05
2.2381342e-07
1.4633127e-06
4.4804502e-05
1.7749379e-07
1.3204181e-06
4.3709199e-05
1.4078088e-07
1.1936935e-06
4.2719248e-05
1.1179158e-07
1.081575e-06
4.1822875e-05
8.8954564e-08
9.8256585e-07
4.1009364e-05
7.0988025e-08
8.9525472e-07
4.0269054e-05
5.6861847e-08
8.1832383e-07
3.9593306e-05
4.571913e-08
7.5058474e-07
3.8974405e-05
3.6977845e-08
6.9093434e-07
3.8405585e-05
3.0067346e-08
6.3838631e-07
3.7880869e-05
2.4650836e-08
5.9204242e-07
3.7395029e-05
2.043998e-08
5.5110606e-07
3.6943514e-05
1.7190262e-08
5.1487713e-07
3.6522366e-05
1.4716725e-08
4.827396e-07
3.6128148e-05
1.2874766e-08
4.5415391e-07
3.5757883e-05
1.1549886e-08
4.2864944e-07
3.5408991e-05
1.065076e-08
4.0581706e-07
3.5079238e-05
1.0103592e-08
3.8530227e-07
3.4766689e-05
9.8482434e-09
3.6679878e-07
3.4469668e-05
9.8350854e-09
3.5004233e-07
3.4186716e-05
1.0022921e-08
3.3480554e-07
3.3916567e-05
1.0377045e-08
3.2089288e-07
3.3658116e-05
1.0868083e-08
3.0813662e-07
3.3410395e-05
1.1471002e-08
2.9639285e-07
3.3172556e-05
1.2164238e-08
2.8553828e-07
3.2943852e-05
1.2929301e-08
2.7546717e-07
3.2723625e-05
1.3750167e-08
2.6608894e-07
3.2511286e-05
1.4613073e-08
2.5732573e-07
3.2306316e-05
1.5506241e-08
2.4911064e-07
3.2108246e-05
1.6419608e-08
2.4138624e-07
3.1916658e-05
1.734464e-08
2.3410271e-07
3.1731171e-05
1.8274323e-08
2.2721713e-07
3.1551444e-05
1.9203158e-08
2.2069215e-07
3.1377162e-05
2.0127729e-08
2.1449508e-07
3.1208038e-05
2.1048645e-08
2.0859681e-07
3.10438e-05
2.1972772e-08
2.029705e-07
3.0884232e-05
2.2827846e-08
1.9760737e-07
3.0729103e-05
2.366296e-08
1.9248225e-07
3.05782e-05
2.4489986e-08
1.875738e-07
3.0431331e-05
2.5296277e-08
1.828676e-07
3.0288318e-05
2.6078003e-08
1.7835076e-07
3.0148994e-05
2.6834286e-08
1.7401107e-07
3.0013202e-05
2.7564708e-08
1.6983758e-07
2.9880797e-05
2.8268946e-08
1.6582024e-07
2.975164e-05
2.894744e-08
1.6195014e-07
2.9625601e-05
2.9600775e-08
1.5821899e-07
2.9502557e-05
3.0228562e-08
1.5461922e-07
2.9382396e-05
3.0823585e-08
1.5114464e-07
2.9265007e-05
3.139313e-08
1.4778877e-07
2.9150287e-05
3.1939594e-08
1.4454534e-07
2.9038137e-05
3.2461863e-08
1.4140901e-07
2.8928465e-05
3.2960084e-08
1.3837463e-07
2.8821181e-05
3.3434757e-08
1.3543751e-07
2.8716203e-05
3.3886354e-08
1.3259328e-07
2.8613449e-05
3.4315515e-08
1.2983786e-07
2.8512845e-05
3.4722851e-08
1.2716736e-07
2.8414317e-05
3.5108971e-08
1.2457816e-07
2.8317797e-05
3.5474456e-08
1.2206679e-07
2.8223219e-05
3.5819867e-08
1.1963008e-07
2.813052e-05
3.6145897e-08
1.172649e-07
2.803964e-05
3.6453071e-08
1.1496834e-07
2.7950522e-05
3.6741847e-08
1.1273772e-07
2.7863111e-05
3.7012801e-08
1.1057025e-07
2.7777355e-05
3.7266232e-08
1.0846342e-07
2.7693204e-05
3.7502466e-08
1.0641475e-07
2.761061e-05
3.772161e-08
1.0442176e-07
2.752953e-05
3.7923565e-08
1.02482e-07
2.7449919e-05
3.8107996e-08
1.0059307e-07
2.7371738e-05
3.8274281e-08
9.875232e-08
2.7294949e-05
3.8421548e-08
9.6956937e-08
2.7219516e-05
3.8548751e-08
9.5203632e-08
2.714541e-05
3.8655127e-08
9.3488632e-08
2.7072603e-05
3.8741135e-08
9.1806963e-08
2.7001079e-05
3.8810258e-08
9.0152317e-08
2.6930832e-05
3.8872155e-08
8.8516551e-08
2.6861876e-05
3.8947405e-08
8.6890507e-08
2.679426e-05
3.9073555e-08
8.526921e-08
2.6728065e-05
3.930696e-08
8.367591e-08
2.6663337e-05
3.9708353e-08
8.2271137e-08
2.659956e-05
4.0272013e-08
8.18362e-08
2.6534295e-05
4.0698002e-08
8.4555714e-08
3.9620846e-08
1.1507132e-07
0.00010494757
5.6811078e-07
6.5033076e-06
9.8925416e-05
1.0462983e-06
6.6283517e-06
9.3480449e-05
1.3439844e-06
6.1835065e-06
8.8341777e-05
1.4751324e-06
5.9184763e-06
8.3502084e-05
1.4993911e-06
5.6187065e-06
7.9004057e-05
1.4572411e-06
5.2482679e-06
7.4853978e-05
1.3667382e-06
4.8478757e-06
7.1037378e-05
1.2423974e-06
4.4464569e-06
6.7536063e-05
1.0997693e-06
4.0563128e-06
6.4331998e-05
9.519236e-07
3.683491e-06
6.1407318e-05
8.0805756e-07
3.3320524e-06
5.8744339e-05
6.7422202e-07
3.0046209e-06
5.6325632e-05
5.5404398e-07
2.7024907e-06
5.4133973e-05
4.4916747e-07
2.4259383e-06
5.2152298e-05
3.5972401e-07
2.174536e-06
5.0363747e-05
2.8484508e-07
1.9473718e-06
4.875178e-05
2.2310002e-07
1.7432015e-06
4.7300339e-05
1.7281164e-07
1.5605647e-06
4.5994012e-05
1.3226571e-07
1.3978748e-06
4.4818177e-05
9.9840044e-08
1.2534891e-06
4.3759121e-05
7.4075621e-08
1.1257614e-06
4.2804123e-05
5.3707673e-08
1.0130814e-06
4.1941503e-05
3.7671264e-08
9.1390373e-07
4.1160627e-05
2.509649e-08
8.2676732e-07
4.0451891e-05
1.5294211e-08
7.5030387e-07
3.980679e-05
7.528195e-09
6.8329175e-07
3.9217543e-05
1.6727329e-09
6.2455202e-07
3.8677513e-05
-3.0331175e-09
5.7313083e-07
3.8180739e-05
-6.6486728e-09
5.2807356e-07
3.7722004e-05
-9.3594814e-09
4.8853452e-07
3.7296777e-05
-1.1371796e-08
4.537893e-07
3.6901112e-05
-1.2818228e-08
4.2319915e-07
3.6531588e-05
-1.380531e-08
3.9620482e-07
3.6185236e-05
-1.4417488e-08
3.7231875e-07
3.5859491e-05
-1.4721884e-08
3.5111778e-07
3.5552132e-05
-1.4772605e-08
3.3223582e-07
3.5261237e-05
-1.4613909e-08
3.1535728e-07
3.4985143e-05
-1.4282176e-08
3.0021091e-07
3.472241e-05
-1.3807694e-08
2.8656377e-07
3.4471787e-05
-1.3215882e-08
2.7421629e-07
3.4232185e-05
-1.2528164e-08
2.6299771e-07
3.4002657e-05
-1.1762785e-08
2.5276172e-07
3.3782373e-05
-1.0935227e-08
2.4338338e-07
3.3570606e-05
-1.0058766e-08
2.3475558e-07
3.3366714e-05
-9.1447237e-09
2.2678674e-07
3.3170131e-05
-8.2028065e-09
2.1939833e-07
3.2980356e-05
-7.241219e-09
2.1252298e-07
3.279694e-05
-6.2668834e-09
2.0610283e-07
3.2619482e-05
-5.2855407e-09
2.0008786e-07
3.2447623e-05
-4.3018165e-09
1.944348e-07
3.228104e-05
-3.31907e-09
1.8910587e-07
3.2119438e-05
-2.3383173e-09
1.8406735e-07
3.1962554e-05
-1.3530434e-09
1.7928646e-07
3.1810075e-05
-2.7630807e-10
1.7472765e-07
3.1661878e-05
5.8583878e-10
1.7043904e-07
3.1517732e-05
1.4356153e-09
1.6637292e-07
3.1377429e-05
2.3038212e-09
1.6248958e-07
3.1240792e-05
3.158651e-09
1.5877483e-07
3.1107656e-05
3.9969987e-09
1.5521718e-07
3.0977867e-05
4.817196e-09
1.5180548e-07
3.0851284e-05
5.6179705e-09
1.4852969e-07
3.0727774e-05
6.3990366e-09
1.4538078e-07
3.0607209e-05
7.1609334e-09
1.4235053e-07
3.0489473e-05
7.9059437e-09
1.3943122e-07
3.037445e-05
8.6357636e-09
1.3661577e-07
3.0262049e-05
9.3206754e-09
1.3390397e-07
3.0152163e-05
9.993843e-09
1.3128564e-07
3.0044697e-05
1.0650389e-08
1.2875513e-07
2.9939564e-05
1.1286759e-08
1.2630828e-07
2.983668e-05
1.1903191e-08
1.2394087e-07
2.9735965e-05
1.2500148e-08
1.2164883e-07
2.9637345e-05
1.3077853e-08
1.1942845e-07
2.9540748e-05
1.363668e-08
1.1727618e-07
2.9446105e-05
1.4176991e-08
1.1518885e-07
2.9353352e-05
1.4699162e-08
1.1316338e-07
2.9262425e-05
1.5203514e-08
1.1119701e-07
2.9173268e-05
1.569047e-08
1.0928709e-07
2.9085822e-05
1.616039e-08
1.0743106e-07
2.9000035e-05
1.6613547e-08
1.0562659e-07
2.8915855e-05
1.7050417e-08
1.0387151e-07
2.8833233e-05
1.7471124e-08
1.0216363e-07
2.8752123e-05
1.7875983e-08
1.0050079e-07
2.8672479e-05
1.8265081e-08
9.8881112e-08
2.8594259e-05
1.8638533e-08
9.7302473e-08
2.8517424e-05
1.8996213e-08
9.5762931e-08
2.8441934e-05
1.9337776e-08
9.4260344e-08
2.8367753e-05
1.9662791e-08
9.2792349e-08
2.8294848e-05
1.9970486e-08
9.1356273e-08
2.8223187e-05
2.0260005e-08
8.994885e-08
2.8152746e-05
2.0530705e-08
8.8565923e-08
2.8083503e-05
2.0782609e-08
8.7201784e-08
2.8015447e-05
2.101755e-08
8.584873e-08
2.7948582e-05
2.1240737e-08
8.4495833e-08
2.7882937e-05
2.1462741e-08
8.3129482e-08
2.7818574e-05
2.1700001e-08
8.1736534e-08
2.7755588e-05
2.196931e-08
8.0324348e-08
2.7694014e-05
2.2266166e-08
7.9016076e-08
2.7633299e-05
2.2506296e-08
7.8480664e-08
2.7571004e-05
2.2393384e-08
8.059943e-08
2.0993088e-08
1.0779945e-07
0.00010489986
2.7443378e-07
6.5049155e-06
9.8802772e-05
5.0716633e-07
6.6362236e-06
9.329591e-05
6.5854973e-07
6.1922972e-06
8.8116302e-05
7.2902544e-07
5.9257148e-06
8.3248198e-05
7.4378813e-07