/*--------------------------------*- C++ -*----------------------------------*\
  =========                 |
  \\      /  F ield         | OpenFOAM: The Open Source CFD Toolbox
   \\    /   O peration     | Website:  https://openfoam.org
    \\  /    A nd           | Version:  7
     \\/     M anipulation  |
\*---------------------------------------------------------------------------*/
FoamFile
{
    version     2.0;
    format      ascii;
    class       surfaceScalarField;
    location    "650/water";
    object      phi;
}
// * * * * * * * * * * * * * * * * * * * * * * * * * * * * * * * * * * * * * //

dimensions      [1 0 -1 0 0 0 0];

internalField   nonuniform List<scalar> 
156660
(
9.9057239e-05
6.0010402e-06
6.0528092e-06
8.6847498e-05
6.0555113e-06
6.1542307e-06
7.5687891e-05
5.5111362e-06
5.6484701e-06
6.5441704e-05
5.0404181e-06
5.2057689e-06
5.6267661e-05
4.4956436e-06
4.6783992e-06
4.8318019e-05
3.8797648e-06
4.0698777e-06
4.1624776e-05
3.2524449e-06
3.4407982e-06
3.6124897e-05
2.660462e-06
2.839417e-06
3.1692235e-05
2.1345127e-06
2.2981489e-06
2.8162841e-05
1.6926975e-06
1.8366964e-06
2.5361437e-05
1.3399933e-06
1.4614113e-06
2.3124664e-05
1.0698476e-06
1.1669256e-06
2.1315127e-05
8.6875418e-07
9.4078224e-07
1.9825714e-05
7.2110068e-07
7.6831271e-07
1.8577278e-05
6.1248248e-07
6.3595304e-07
1.7513255e-05
5.3125219e-07
5.3277147e-07
1.6593744e-05
4.6879723e-07
4.5071349e-07
1.5790433e-05
4.1913718e-07
3.8417384e-07
1.5082784e-05
3.7829072e-07
3.2935848e-07
1.4455417e-05
3.4367129e-07
2.8369564e-07
1.3896409e-05
3.136141e-07
2.4539332e-07
1.339622e-05
2.8704451e-07
2.1314453e-07
1.2947015e-05
2.632603e-07
1.859451e-07
1.2542237e-05
2.4179367e-07
1.629846e-07
1.2176318e-05
2.2232208e-07
1.4359688e-07
1.1844484e-05
2.0461482e-07
1.2721881e-07
1.1542609e-05
1.8849492e-07
1.1337976e-07
1.1267116e-05
1.7381574e-07
1.0167794e-07
1.1014892e-05
1.6046271e-07
9.1760817e-08
1.0783252e-05
1.4833967e-07
8.3300599e-08
1.0569851e-05
1.3734904e-07
7.6052132e-08
1.0372614e-05
1.2738862e-07
6.9848323e-08
1.0189731e-05
1.1836809e-07
6.4514859e-08
1.001963e-05
1.1020448e-07
5.9896653e-08
9.8609388e-06
1.0281923e-07
5.5871656e-08
9.7124594e-06
9.6137945e-08
5.2341364e-08
9.5731439e-06
9.0091187e-08
4.9224362e-08
9.4420759e-06
8.4614475e-08
4.6453556e-08
9.3184531e-06
7.9648664e-08
4.3974132e-08
9.2015723e-06
7.5139707e-08
4.1741086e-08
9.0908166e-06
7.1038165e-08
3.9717552e-08
8.9856432e-06
6.7301157e-08
3.7872301e-08
8.8855707e-06
6.3894254e-08
3.6178156e-08
8.7901757e-06
6.078008e-08
3.461493e-08
8.6990829e-06
5.7926174e-08
3.3166658e-08
8.6119591e-06
5.5303745e-08
3.182011e-08
8.5285072e-06
5.2887441e-08
3.056441e-08
8.4484618e-06
5.065507e-08
2.9390263e-08
8.3715848e-06
4.8587051e-08
2.8290009e-08
8.2976614e-06
4.6666185e-08
2.72572e-08
8.2264975e-06
4.4877485e-08
2.6286403e-08
8.1579202e-06
4.320878e-08
2.5368505e-08
8.0917731e-06
4.1649033e-08
2.4498038e-08
8.0279108e-06
4.0187016e-08
2.3675365e-08
7.9662006e-06
3.8812712e-08
2.2897538e-08
7.9065219e-06
3.7518392e-08
2.2160249e-08
7.8487639e-06
3.6297834e-08
2.1460156e-08
7.7928241e-06
3.5145139e-08
2.079459e-08
7.7386083e-06
3.4054671e-08
2.0161134e-08
7.6860293e-06
3.3021391e-08
1.9557682e-08
7.6350062e-06
3.2040805e-08
1.8982252e-08
7.5854641e-06
3.1109048e-08
1.8433052e-08
7.537333e-06
3.0222612e-08
1.7908497e-08
7.4905478e-06
2.9378225e-08
1.7406993e-08
7.4450476e-06
2.8573022e-08
1.6927178e-08
7.4007755e-06
2.7804229e-08
1.6467805e-08
7.3576783e-06
2.7069593e-08
1.602765e-08
7.3157056e-06
2.6367041e-08
1.5605631e-08
7.2748103e-06
2.5694646e-08
1.5200705e-08
7.2349479e-06
2.505058e-08
1.4811853e-08
7.1960766e-06
2.4433086e-08
1.4438192e-08
7.158157e-06
2.3840692e-08
1.4078947e-08
7.1211518e-06
2.3271927e-08
1.3733266e-08
7.0850258e-06
2.2725522e-08
1.34005e-08
7.0497456e-06
2.2200218e-08
1.3079908e-08
7.0152798e-06
2.1694928e-08
1.2770868e-08
6.9815985e-06
2.1208608e-08
1.2472738e-08
6.9486733e-06
2.0740238e-08
1.2184951e-08
6.9164775e-06
2.0288982e-08
1.1906824e-08
6.8849857e-06
1.9853936e-08
1.1637858e-08
6.8541739e-06
1.9434373e-08
1.1377452e-08
6.8240193e-06
1.9029468e-08
1.1125105e-08
6.7945006e-06
1.8638517e-08
1.0880246e-08
6.7655975e-06
1.8260747e-08
1.0642317e-08
6.7372912e-06
1.7895569e-08
1.0410736e-08
6.709564e-06
1.7542081e-08
1.0185083e-08
6.6823995e-06
1.7199641e-08
9.9648819e-09
6.6557824e-06
1.6867286e-08
9.7498299e-09
6.6296983e-06
1.6544136e-08
9.5399806e-09
6.6041331e-06
1.6229279e-08
9.3359821e-09
6.5790714e-06
1.5921985e-08
9.1396589e-09
6.554494e-06
1.5622334e-08
8.9550941e-09
6.5303708e-06
1.5332549e-08
8.7906958e-09
6.5066467e-06
1.5060452e-08
8.663604e-09
6.4832094e-06
1.4827836e-08
8.6095183e-09
6.4598103e-06
1.4693098e-08
8.7060397e-09
6.4358387e-06
1.4826449e-08
9.1451336e-09
6.4096302e-06
1.5741746e-08
1.0466745e-08
6.3782855e-06
1.8026557e-08
1.3318223e-08
3.2300215e-08
2.792352e-08
0.00010646494
4.1872385e-06
6.4599816e-06
0.0001002019
5.695418e-06
6.6231353e-06
9.3659588e-05
5.7790389e-06
6.2744098e-06
8.7011589e-05
5.6514782e-06
6.0369387e-06
8.0422927e-05
5.366912e-06
5.7173941e-06
7.4094022e-05
4.9022832e-06
5.3063862e-06
6.8167026e-05
4.3278136e-06
4.8516273e-06
6.2722565e-05
3.717891e-06
4.387032e-06
5.7799049e-05
3.1243144e-06
3.9337145e-06
5.3403345e-05
2.5820689e-06
3.5063329e-06
4.9517402e-05
2.1121062e-06
3.1138299e-06
4.6105482e-05
1.7220197e-06
2.7597473e-06
4.3121558e-05
1.4089355e-06
2.4437429e-06
4.0515558e-05
1.1637552e-06
2.163346e-06
3.8237948e-05
9.7485854e-07
1.9152336e-06
3.6242683e-05
8.3055976e-07
1.6959573e-06
3.4488759e-05
7.2043699e-07
1.5022849e-06
3.2940716e-05
6.3586296e-07
1.3313172e-06
3.1568463e-05
5.7005005e-07
1.180493e-06
3.0346733e-05
5.17849e-07
1.0475522e-06
2.9254398e-05
4.7545957e-07
9.3049033e-07
2.8273782e-05
4.4013959e-07
8.2752022e-07
2.7390054e-05
4.0994889e-07
7.3704008e-07
2.6590699e-05
3.8353954e-07
6.5760857e-07
2.5865102e-05
3.5998888e-07
5.879307e-07
2.5204197e-05
3.3867634e-07
5.2684262e-07
2.4600205e-05
3.191836e-07
4.733035e-07
2.4046429e-05
3.0120189e-07
4.2639016e-07
2.3537073e-05
2.8455205e-07
3.8526716e-07
2.3067119e-05
2.6911098e-07
3.4918239e-07
2.2632208e-05
2.5478166e-07
3.1747787e-07
2.2228528e-05
2.4147384e-07
2.8959531e-07
2.1852744e-05
2.2911072e-07
2.6504123e-07
2.1501947e-05
2.1762893e-07
2.4337258e-07
2.1173591e-05
2.069695e-07
2.2420572e-07
2.0865444e-05
1.9707566e-07
2.0720868e-07
2.0575549e-05
1.8789253e-07
1.9209398e-07
2.0302183e-05
1.7936721e-07
1.7861342e-07
2.0043829e-05
1.7144909e-07
1.6655323e-07
1.979915e-05
1.6408982e-07
1.5572942e-07
1.956696e-05
1.5724384e-07
1.4598404e-07
1.934621e-05
1.5086892e-07
1.3718214e-07
1.9135969e-05
1.4492652e-07
1.2920882e-07
1.8935407e-05
1.3937906e-07
1.2196306e-07
1.8743783e-05
1.341923e-07
1.1535762e-07
1.8560435e-05
1.2933511e-07
1.0931726e-07
1.8384766e-05
1.2477907e-07
1.0377715e-07
1.8216241e-05
1.2049854e-07
9.868129e-08
1.8054377e-05
1.1647016e-07
9.3981342e-08
1.7898734e-05
1.1267296e-07
8.9635396e-08
1.7748917e-05
1.0908822e-07
8.5606974e-08
1.7604563e-05
1.0570003e-07
8.1862372e-08
1.7465345e-05
1.0249338e-07
7.8373275e-08
1.7330962e-05
9.9453015e-08
7.5117009e-08
1.7201138e-05
9.6564421e-08
7.2072732e-08
1.7075619e-05
9.3816624e-08
6.9221147e-08
1.695417e-05
9.1201069e-08
6.6545105e-08
1.6836577e-05
8.8709098e-08
6.4029516e-08
1.6722638e-05
8.6331956e-08
6.1661034e-08
1.661217e-05
8.4061736e-08
5.9427699e-08
1.6505001e-05
8.1891531e-08
5.7318809e-08
1.640097e-05
7.9814935e-08
5.5324848e-08
1.6299929e-05
7.7826177e-08
5.3437121e-08
1.620174e-05
7.5919859e-08
5.1647899e-08
1.6106272e-05
7.4091011e-08
4.9950127e-08
1.6013404e-05
7.233498e-08
4.8337382e-08
1.5923022e-05
7.0647762e-08
4.6803885e-08
1.5835019e-05
6.9025736e-08
4.534428e-08
1.5749294e-05
6.7465548e-08
4.3953731e-08
1.5665753e-05
6.5963773e-08
4.2627726e-08
1.5584307e-05
6.4517359e-08
4.1362172e-08
1.5504871e-05
6.3123424e-08
4.015336e-08
1.5427365e-05
6.1779296e-08
3.8997795e-08
1.5351716e-05
6.0482548e-08
3.7892281e-08
1.5277852e-05
5.9230838e-08
3.6833867e-08
1.5205705e-05
5.8022001e-08
3.5819718e-08
1.5135212e-05
5.6853998e-08
3.4847374e-08
1.5066313e-05
5.5724962e-08
3.3914362e-08
1.499895e-05
5.4633095e-08
3.3018441e-08
1.493307e-05
5.3576745e-08
3.2157475e-08
1.4868621e-05
5.2554224e-08
3.1329409e-08
1.4805554e-05
5.1563989e-08
3.0532428e-08
1.4743823e-05
5.0604497e-08
2.9764686e-08
1.4683386e-05
4.9674268e-08
2.9024391e-08
1.4624199e-05
4.8771798e-08
2.8309849e-08
1.4566226e-05
4.789544e-08
2.761957e-08
1.4509431e-05
4.704352e-08
2.6951939e-08
1.4453778e-05
4.6214079e-08
2.6305761e-08
1.4399237e-05
4.5405387e-08
2.5679888e-08
1.4345777e-05
4.4615715e-08
2.5073729e-08
1.4293367e-05
4.3844252e-08
2.4487692e-08
1.4241972e-05
4.3092875e-08
2.3923748e-08
1.4191548e-05
4.2369923e-08
2.3387155e-08
1.4142019e-05
4.1699311e-08
2.2889645e-08
1.4093249e-05
4.1141625e-08
2.2456625e-08
1.4044951e-05
4.0844656e-08
2.2146545e-08
1.3996485e-05
4.1169171e-08
2.2123037e-08
1.3946229e-05
4.3012322e-08
2.2985406e-08
1.389015e-05
4.854027e-08
2.5565809e-08
6.3281545e-08
5.0000873e-08
0.00010603565
2.7876425e-06
6.4750379e-06
0.00010074799
4.4145413e-06
6.5685292e-06
9.5493515e-05
4.8594028e-06
6.1741158e-06
9.0256432e-05
4.930369e-06
5.9581921e-06
8.5101366e-05
4.8311767e-06
5.6908012e-06
8.0102875e-05
4.5561761e-06
5.3445981e-06
7.5322251e-05
4.1469521e-06
4.9614853e-06
7.0803266e-05
3.6678925e-06
4.5689837e-06
6.6576264e-05
3.1701903e-06
4.1811255e-06
6.2660725e-05
2.6900109e-06
3.8075976e-06
5.9065443e-05
2.2519318e-06
3.4554566e-06
5.5788936e-05
1.8697304e-06
3.1287957e-06
5.2820978e-05
1.5477473e-06
2.8291458e-06
5.014479e-05
1.2836302e-06
2.5563139e-06
4.7739304e-05
1.07123e-06
2.3091141e-06
4.5581183e-05
9.0281505e-07
2.0858661e-06
4.3646423e-05
7.7048782e-07
1.884709e-06
4.1911533e-05
6.6697375e-07
1.7037792e-06
4.0354306e-05
5.85982e-07
1.541295e-06
3.8954268e-05
5.2230226e-07
1.3955849e-06
3.769288e-05
4.7175606e-07
1.265091e-06
3.6553576e-05
4.3107984e-07
1.1483634e-06
3.552169e-05
3.9778207e-07
1.0440533e-06
3.4584322e-05
3.6999884e-07
9.5090829e-07
3.3730181e-05
3.4635984e-07
8.6777018e-07
3.2949411e-05
3.2587759e-07
7.935687e-07
3.2233419e-05
3.078405e-07
7.2733486e-07
3.1574711e-05
2.9172986e-07
6.6818106e-07
3.0966769e-05
2.7719264e-07
6.1530127e-07
3.0403928e-05
2.6398101e-07
5.679702e-07
2.9881258e-05
2.5190845e-07
5.2554317e-07
2.9394455e-05
2.408271e-07
4.8745001e-07
2.8939761e-05
2.3062158e-07
4.5318328e-07
2.8513895e-05
2.212015e-07
4.2229388e-07
2.8113985e-05
2.1249192e-07
3.9438673e-07
2.7737518e-05
2.0442794e-07
3.691149e-07
2.7382285e-05
1.9695192e-07
3.4617383e-07
2.7046344e-05
1.9001177e-07
3.2529678e-07
2.6727982e-05
1.8355996e-07
3.0625047e-07
2.6425689e-05
1.7755277e-07
2.8883088e-07
2.6138123e-05
1.7195004e-07
2.7285984e-07
2.5864094e-05
1.6671516e-07
2.5818183e-07
2.5602546e-05
1.6181455e-07
2.4466091e-07
2.535253e-05
1.572171e-07
2.3217765e-07
2.51132e-05
1.5289443e-07
2.2062727e-07
2.4883797e-05
1.4882096e-07
2.0991771e-07
2.4663634e-05
1.4497366e-07
1.9996812e-07
2.4452094e-05
1.4133183e-07
1.9070705e-07
2.4248615e-05
1.3787697e-07
1.8207152e-07
2.405269e-05
1.3459269e-07
1.7400569e-07
2.3863854e-05
1.3146461e-07
1.6645988e-07
2.3681684e-05
1.2848058e-07
1.5938924e-07
2.3505794e-05
1.2562918e-07
1.5275412e-07
2.3335829e-05
1.2289871e-07
1.465197e-07
2.3171462e-05
1.2027637e-07
1.4065458e-07
2.3012394e-05
1.1775474e-07
1.3513022e-07
2.2858345e-05
1.153297e-07
1.2992045e-07
2.2709057e-05
1.1299536e-07
1.2500174e-07
2.2564291e-05
1.1074514e-07
1.2035288e-07
2.2423824e-05
1.0857347e-07
1.1595459e-07
2.2287451e-05
1.0647547e-07
1.1178923e-07
2.2154978e-05
1.0444701e-07
1.0784078e-07
2.2026226e-05
1.024842e-07
1.0409459e-07
2.1901025e-05
1.0058351e-07
1.0053714e-07
2.1779218e-05
9.8741548e-08
9.7156156e-08
2.1660658e-05
9.6954921e-08
9.3940272e-08
2.1545205e-05
9.5221269e-08
9.0879037e-08
2.1432729e-05
9.3538795e-08
8.7962813e-08
2.1323107e-05
9.190532e-08
8.5182599e-08
2.1216222e-05
9.0318502e-08
8.2530197e-08
2.1111965e-05
8.8776403e-08
7.9997889e-08
2.1010233e-05
8.727711e-08
7.757863e-08
2.0910927e-05
8.5818967e-08
7.5265872e-08
2.0813956e-05
8.4400327e-08
7.3053441e-08
2.0719232e-05
8.3019688e-08
7.0935626e-08
2.0626671e-05
8.1675647e-08
6.8907198e-08
2.0536195e-05
8.0366798e-08
6.6963102e-08
2.0447729e-05
7.9091977e-08
6.5098764e-08
2.0361203e-05
7.7849828e-08
6.3309773e-08
2.0276548e-05
7.6639253e-08
6.1592055e-08
2.0193702e-05
7.5459024e-08
5.9941733e-08
2.0112602e-05
7.4307971e-08
5.8355222e-08
2.0033193e-05
7.3184929e-08
5.6829067e-08
1.9955419e-05
7.2088597e-08
5.535998e-08
1.9879228e-05
7.1017624e-08
5.394486e-08
1.9804572e-05
6.9970428e-08
5.2580707e-08
1.9731406e-05
6.8945269e-08
5.1264818e-08
1.9659685e-05
6.7940121e-08
4.9994403e-08
1.9589371e-05
6.6953023e-08
4.8767033e-08
1.9520423e-05
6.5982357e-08
4.7580533e-08
1.9452807e-05
6.5028022e-08
4.6433111e-08
1.9386482e-05
6.4094088e-08
4.5323766e-08
1.9321404e-05
6.3194691e-08
4.425308e-08
1.9257511e-05
6.2366344e-08
4.3225219e-08
1.9194705e-05
6.1695174e-08
4.2253132e-08
1.9132798e-05
6.1374084e-08
4.1377426e-08
1.9071394e-05
6.1822432e-08
4.0750679e-08
1.9009424e-05
6.3924743e-08
4.1057612e-08
1.8944661e-05
6.9304692e-08
4.3998848e-08
7.9170932e-08
7.4661559e-08
0.0001054937
1.9169871e-06
6.4880406e-06
0.00010005365
3.2729596e-06
6.5816334e-06
9.4926077e-05
3.8288995e-06
6.1580776e-06
8.9946373e-05
3.9838108e-06
5.9262629e-06
8.5163276e-05
3.9595077e-06
5.6547657e-06
8.0619137e-05
3.7899369e-06
5.3103784e-06
7.6329462e-05
3.5015547e-06
4.9350725e-06
7.230016e-05
3.1412013e-06
4.5559928e-06
6.8534206e-05
2.7514802e-06
4.1846641e-06
6.5032983e-05
2.3633492e-06
3.8278853e-06
6.1795789e-05
1.9984144e-06
3.490711e-06
5.8818843e-05
1.6703759e-06
3.176301e-06
5.6094718e-05
1.3858295e-06
2.886043e-06
5.3612488e-05
1.1457945e-06
2.6200649e-06
5.1358373e-05
9.476412e-07
2.3777043e-06
4.9316593e-05
7.8676787e-07
2.1578272e-06
4.7470246e-05
6.5779546e-07
1.9590391e-06
4.5802069e-05
5.5532541e-07
1.7798252e-06
4.4295042e-05
4.7437116e-07
1.6186378e-06
4.293283e-05
4.1056669e-07
1.473948e-06
4.1700078e-05
3.6023235e-07
1.3442759e-06
4.0582591e-05
3.2035743e-07
1.2282094e-06
3.956742e-05
2.8853738e-07
1.1244154e-06
3.8642881e-05
2.6289065e-07
1.0316467e-06
3.7798527e-05
2.4196985e-07
9.4874401e-07
3.7025076e-05
2.2467704e-07
8.7465171e-07
3.6314324e-05
2.1018899e-07
8.084041e-07
3.5659057e-05
1.9788605e-07
7.4911039e-07
3.5052961e-05
1.8731584e-07
6.9597281e-07
3.4490519e-05
1.7814869e-07
6.4827379e-07
3.3966922e-05
1.701317e-07
6.0537441e-07
3.3477973e-05
1.6306727e-07
5.6670868e-07
3.3020016e-05
1.5680296e-07
5.3177543e-07
3.2589865e-05
1.5122053e-07
5.0013243e-07
3.218474e-05
1.4622558e-07
4.7139137e-07
3.1802215e-05
1.4174071e-07
4.4521232e-07
3.1440168e-05
1.3770094e-07
4.2129812e-07
3.1096739e-05
1.3405095e-07
3.9938923e-07
3.0770297e-05
1.3074297e-07
3.7925955e-07
3.0459402e-05
1.2773518e-07
3.6071195e-07
3.0162787e-05
1.2499095e-07
3.4357477e-07
2.9879325e-05
1.2247785e-07
3.2769849e-07
2.960802e-05
1.2016735e-07
3.1295271e-07
2.934798e-05
1.1803379e-07
2.9922353e-07
2.9098408e-05
1.1605459e-07
2.8641137e-07
2.885859e-05
1.1420982e-07
2.7442903e-07
2.8627882e-05
1.1248194e-07
2.6319999e-07
2.8405701e-05
1.1085562e-07
2.5265684e-07
2.819152e-05
1.0931761e-07
2.4274022e-07
2.7984859e-05
1.078565e-07
2.3339755e-07
2.7785279e-05
1.0646278e-07
2.2458209e-07
2.7592378e-05
1.0512869e-07
2.1625213e-07
2.740579e-05
1.0384736e-07
2.0837038e-07
2.7225174e-05
1.0261117e-07
2.0090361e-07
2.705022e-05
1.0140744e-07
1.9382258e-07
2.6880641e-05
1.0023385e-07
1.8710041e-07
2.6716166e-05
9.909237e-08
1.8071224e-07
2.6556546e-05
9.7979995e-08
1.7463556e-07
2.6401548e-05
9.689249e-08
1.6885016e-07
2.6250957e-05
9.5827058e-08
1.6333743e-07
2.610457e-05
9.4781691e-08
1.5808047e-07
2.5962199e-05
9.3754715e-08
1.5306361e-07
2.5823666e-05
9.2744861e-08
1.4827259e-07
2.5688804e-05
9.175102e-08
1.4369413e-07
2.5557458e-05
9.0771776e-08
1.3931598e-07
2.5429481e-05
8.9805178e-08
1.3512693e-07
2.5304734e-05
8.8851448e-08
1.3111644e-07
2.5183087e-05
8.7911224e-08
1.2727467e-07
2.5064416e-05
8.6983915e-08
1.2359244e-07
2.4948604e-05
8.6068927e-08
1.2006121e-07
2.4835542e-05
8.5165797e-08
1.1667302e-07
2.4725124e-05
8.4274337e-08
1.1342045e-07
2.4617252e-05
8.3394267e-08
1.1029655e-07
2.4511832e-05
8.2525463e-08
1.0729479e-07
2.4408775e-05
8.166777e-08
1.0440898e-07
2.4307997e-05
8.0820982e-08
1.0163341e-07
2.4209416e-05
7.9985011e-08
9.8962614e-08
2.4112956e-05
7.9159716e-08
9.6391533e-08
2.4018546e-05
7.8345039e-08
9.3915317e-08
2.3926115e-05
7.7540696e-08
9.1529299e-08
2.3835598e-05
7.6746568e-08
8.9229242e-08
2.3746933e-05
7.5962319e-08
8.7011048e-08
2.366006e-05
7.5187641e-08
8.4870723e-08
2.3574922e-05
7.4421996e-08
8.2804549e-08
2.3491466e-05
7.3664622e-08
8.0808929e-08
2.3409641e-05
7.2914615e-08
7.8880372e-08
2.33294e-05
7.2170697e-08
7.7015487e-08
2.3250698e-05
7.1431332e-08
7.5211017e-08
2.3173493e-05
7.0694873e-08
7.3463638e-08
2.3097745e-05
6.9960221e-08
7.1770094e-08
2.3023418e-05
6.9228029e-08
7.012702e-08
2.2950477e-05
6.8503508e-08
6.853121e-08
2.2878889e-05
6.7802878e-08
6.6979725e-08
2.2808619e-05
6.716506e-08
6.5471599e-08
2.2739625e-05
6.6675284e-08
6.4013366e-08
2.267185e-05
6.6507079e-08
6.2642324e-08
2.2605149e-05
6.6990745e-08
6.1532367e-08
2.2538888e-05
6.8686031e-08
6.1499901e-08
2.2471121e-05
7.2226958e-08
6.4845096e-08
7.6722839e-08
9.8461322e-08
0.0001051979
1.3340884e-06
6.4961221e-06
9.9496561e-05
2.3731022e-06
6.6011947e-06
9.4262459e-05
2.9019223e-06
6.1610799e-06
8.9251186e-05
3.0856641e-06
5.9094196e-06
8.4493498e-05
3.0947347e-06
5.6224614e-06
8.0033635e-05
2.9846657e-06
5.265134e-06
7.5876907e-05
2.7790155e-06
4.8792667e-06
7.2014635e-05
2.5106844e-06
4.4927895e-06
6.8436293e-05
2.2128728e-06
4.1169489e-06
6.5131387e-05
1.9107259e-06
3.7575292e-06
6.208941e-05
1.6217321e-06
3.4186596e-06
5.9299432e-05
1.3573878e-06
3.1029661e-06
5.6749589e-05
1.1240344e-06
2.8116386e-06
5.4426788e-05
9.2377946e-07
2.5448158e-06
5.2316754e-05
7.5572801e-07
2.3019466e-06
5.0404313e-05
6.1717854e-07
2.0820302e-06
4.8673788e-05
5.0454348e-07
1.8837772e-06
4.7109414e-05
4.139718e-07
1.7057274e-06
4.5695713e-05
3.4173649e-07
1.5463363e-06
4.4417792e-05
2.8445147e-07
1.4040359e-06
4.3261575e-05
2.3917112e-07
1.2772781e-06
4.2213952e-05
2.0341502e-07
1.1645652e-06
4.1262871e-05
1.7514739e-07
1.0644718e-06
4.039737e-05
1.5273232e-07
9.7565901e-07
3.9607583e-05
1.348753e-07
8.9688148e-07
3.8884688e-05
1.2055568e-07
8.270164e-07
3.8220848e-05
1.0901091e-07
7.6501853e-07
3.7609155e-05
9.963383e-08
7.0994486e-07
3.7043542e-05
9.1977448e-08
6.6095087e-07
3.6518702e-05
8.5705814e-08
6.1728288e-07
3.6030009e-05
8.0552387e-08
5.7827311e-07
3.5573433e-05
7.6308274e-08
5.4333413e-07
3.5145475e-05
7.2811266e-08
5.1195029e-07
3.4743091e-05
6.9934094e-08
4.8367023e-07
3.4363641e-05
6.7575435e-08
4.5810067e-07
3.4004828e-05
6.5652855e-08
4.3489995e-07
3.3664659e-05
6.4098601e-08
4.1377211e-07
3.3341393e-05
6.285592e-08
3.944609e-07
3.3033513e-05
6.1877043e-08
3.7674528e-07
3.2739693e-05
6.112109e-08
3.6043423e-07
3.2458768e-05
6.055309e-08
3.4536326e-07
3.2189712e-05
6.0142657e-08
3.3139055e-07
3.1931622e-05
5.9863628e-08
3.1839377e-07
3.1683696e-05
5.9693124e-08
3.0626736e-07
3.1445219e-05
5.9611209e-08
2.9492012e-07
3.1215555e-05
5.9600633e-08
2.8427316e-07
3.0994132e-05
5.9646544e-08
2.7425809e-07
3.0780436e-05
5.9736161e-08
2.648154e-07
3.0574002e-05
5.9858681e-08
2.5589336e-07
3.0374407e-05
6.0004932e-08
2.4744658e-07
3.0181267e-05
6.016765e-08
2.3943548e-07
2.9994229e-05
6.0341274e-08
2.3182486e-07
2.9812971e-05
6.0521823e-08
2.2458373e-07
2.9637193e-05
6.0704459e-08
2.1768455e-07
2.9466629e-05
6.0867273e-08
2.1110458e-07
2.9301024e-05
6.1016992e-08
2.048218e-07
2.914014e-05
6.1160836e-08
1.9881568e-07
2.8983756e-05
6.1294926e-08
1.9306837e-07
2.8831669e-05
6.1415447e-08
1.875639e-07
2.8683688e-05
6.1520952e-08
1.8228767e-07
2.8539633e-05
6.1610552e-08
1.7722635e-07
2.8399336e-05
6.1683793e-08
1.7236784e-07
2.8262639e-05
6.174048e-08
1.6770089e-07
2.8129394e-05
6.1780701e-08
1.6321518e-07
2.7999461e-05
6.1803886e-08
1.5890122e-07
2.7872709e-05
6.1807346e-08
1.5475037e-07
2.7749012e-05
6.1793547e-08
1.5075441e-07
2.7628253e-05
6.176482e-08
1.4690558e-07
2.7510319e-05
6.1721013e-08
1.4319661e-07
2.7395105e-05
6.1662123e-08
1.3962084e-07
2.728251e-05
6.1588651e-08
1.3617202e-07
2.7172439e-05
6.1501049e-08
1.3284421e-07
2.7064802e-05
6.1399964e-08
1.2963191e-07
2.6959511e-05
6.1285961e-08
1.2652991e-07
2.6856486e-05
6.1159495e-08
1.2353325e-07
2.6755649e-05
6.1021281e-08
1.206373e-07
2.6656924e-05
6.0871847e-08
1.1783764e-07
2.6560242e-05
6.0711689e-08
1.1513013e-07
2.6465535e-05
6.0541384e-08
1.1251077e-07
2.6372738e-05
6.0361346e-08
1.0997579e-07
2.6281791e-05
6.0171961e-08
1.0752156e-07
2.6192636e-05
5.9973581e-08
1.0514471e-07
2.6105215e-05
5.9766333e-08
1.0284183e-07
2.6019477e-05
5.9550236e-08
1.0060972e-07
2.5935371e-05
5.9325095e-08
9.8445277e-08
2.585285e-05
5.9090507e-08
9.6345401e-08
2.5771868e-05
5.884551e-08
9.4306956e-08
2.5692384e-05
5.8589005e-08
9.2326731e-08
2.5614357e-05
5.8319822e-08
9.0401447e-08
2.5537753e-05
5.8037111e-08
8.8527354e-08
2.5462539e-05
5.7741639e-08
8.6700188e-08
2.5388689e-05
5.7438402e-08
8.4915164e-08
2.5316184e-05
5.7141442e-08
8.3166629e-08
2.5245017e-05
5.6882602e-08
8.1449661e-08
2.51752e-05
5.6726051e-08
7.9765817e-08
2.510677e-05
5.6787925e-08
7.8149202e-08
2.5039729e-05
5.7251607e-08
7.6780966e-08
2.4973573e-05
5.8330986e-08
7.6510221e-08
2.4906079e-05
5.9989523e-08
7.9732157e-08
6.0715006e-08
1.128782e-07
0.00010503672
9.0789369e-07
6.5005614e-06
9.9140653e-05
1.6524913e-06
6.6166801e-06
9.3788329e-05
2.0825241e-06
6.1717218e-06
8.8708526e-05
2.2549373e-06
5.91053e-06
8.3909682e-05
2.278404e-06
5.6151748e-06
7.9437109e-05
2.2074821e-06
5.2497564e-06
7.5296201e-05
2.0645348e-06
4.8553893e-06
7.1474034e-05
1.8722543e-06
4.4605969e-06
6.7955013e-05
1.6547667e-06
4.077127e-06
6.4723621e-05
1.4313505e-06
3.7107669e-06
6.1764423e-05
1.2154298e-06
3.3655007e-06
5.9062056e-05
1.0158641e-06
3.0438911e-06
5.6601108e-05
8.3782744e-07
2.7471548e-06
5.4365944e-05
6.834465e-07
2.475497e-06
5.2340648e-05
5.5258529e-07
2.2284384e-06
5.0509125e-05
4.436655e-07
2.0050361e-06
4.8855299e-05
3.5433454e-07
1.8040352e-06
4.7363353e-05
2.819359e-07
1.6239821e-06
4.6017963e-05
2.2381348e-07
1.4633127e-06
4.4804502e-05
1.7749383e-07
1.3204181e-06
4.3709199e-05
1.4078089e-07
1.1936935e-06
4.2719248e-05
1.1179155e-07
1.081575e-06
4.1822875e-05
8.8954513e-08
9.8256584e-07
4.1009364e-05
7.0987994e-08
8.9525472e-07
4.0269054e-05
5.6861831e-08
8.1832381e-07
3.9593306e-05
4.5719152e-08
7.5058476e-07
3.8974405e-05
3.6977855e-08
6.9093436e-07
3.8405585e-05
3.006737e-08
6.3838631e-07
3.7880869e-05
2.4650849e-08
5.9204238e-07
3.7395029e-05
2.0439984e-08
5.5110605e-07
3.6943514e-05
1.7190273e-08
5.1487716e-07
3.6522366e-05
1.4716704e-08
4.8273956e-07
3.6128148e-05
1.2874763e-08
4.5415388e-07
3.5757883e-05
1.154988e-08
4.2864943e-07
3.5408991e-05
1.0650747e-08
4.0581706e-07
3.5079238e-05
1.0103621e-08
3.8530228e-07
3.4766689e-05
9.8482633e-09
3.667988e-07
3.4469668e-05
9.8350996e-09
3.5004232e-07
3.4186716e-05
1.0022925e-08
3.3480551e-07
3.3916567e-05
1.0377051e-08
3.2089286e-07
3.3658116e-05
1.0868053e-08
3.081366e-07
3.3410395e-05
1.1470971e-08
2.9639283e-07
3.3172556e-05
1.216421e-08
2.8553828e-07
3.2943852e-05
1.2929308e-08
2.7546718e-07
3.2723625e-05
1.3750169e-08
2.6608894e-07
3.2511286e-05
1.4613068e-08
2.5732572e-07
3.2306316e-05
1.550625e-08
2.4911068e-07
3.2108246e-05
1.6419592e-08
2.4138623e-07
3.1916658e-05
1.7344625e-08
2.341027e-07
3.1731171e-05
1.8274336e-08
2.2721715e-07
3.1551444e-05
1.9203188e-08
2.2069217e-07
3.1377162e-05
2.0127736e-08
2.1449509e-07
3.1208038e-05
2.1048641e-08
2.0859678e-07
3.10438e-05
2.1972752e-08
2.0297053e-07
3.0884232e-05
2.2827851e-08
1.9760736e-07
3.0729103e-05
2.3662956e-08
1.9248227e-07
3.05782e-05
2.4490007e-08
1.8757381e-07
3.0431331e-05
2.529627e-08
1.8286761e-07
3.0288318e-05
2.6077973e-08
1.7835077e-07
3.0148994e-05
2.6834307e-08
1.7401107e-07
3.0013202e-05
2.7564678e-08
1.6983756e-07
2.9880797e-05
2.8268943e-08
1.6582025e-07
2.975164e-05
2.8947405e-08
1.6195015e-07
2.9625601e-05
2.960077e-08
1.5821896e-07
2.9502557e-05
3.0228539e-08
1.5461919e-07
2.9382396e-05
3.0823569e-08
1.5114463e-07
2.9265007e-05
3.1393109e-08
1.4778876e-07
2.9150287e-05
3.1939587e-08
1.4454536e-07
2.9038137e-05
3.2461876e-08
1.4140898e-07
2.8928465e-05
3.2960065e-08
1.3837458e-07
2.8821181e-05
3.3434736e-08
1.3543751e-07
2.8716203e-05
3.3886359e-08
1.3259327e-07
2.8613449e-05
3.4315542e-08
1.2983785e-07
2.8512845e-05
3.4722891e-08
1.2716736e-07
2.8414317e-05
3.5108998e-08
1.2457817e-07
2.8317797e-05
3.5474454e-08
1.2206681e-07
2.8223219e-05
3.5819883e-08
1.1963007e-07
2.813052e-05
3.6145921e-08
1.1726491e-07
2.803964e-05
3.6453108e-08
1.1496839e-07
2.7950522e-05
3.6741892e-08
1.1273775e-07
2.7863111e-05
3.701283e-08
1.1057026e-07
2.7777354e-05
3.7266276e-08
1.0846344e-07
2.7693204e-05
3.750248e-08
1.0641473e-07
2.761061e-05
3.7721592e-08
1.0442175e-07
2.752953e-05
3.7923537e-08
1.0248202e-07
2.744992e-05
3.8108e-08
1.0059306e-07
2.7371738e-05
3.8274282e-08
9.8752319e-08
2.7294949e-05
3.842153e-08
9.6956905e-08
2.7219516e-05
3.8548762e-08
9.5203633e-08
2.714541e-05
3.8655144e-08
9.3488597e-08
2.7072603e-05
3.8741129e-08
9.1806944e-08
2.7001079e-05
3.881028e-08
9.0152329e-08
2.6930832e-05
3.8872147e-08
8.8516559e-08
2.6861876e-05
3.8947422e-08
8.6890519e-08
2.679426e-05
3.9073528e-08
8.5269183e-08
2.6728065e-05
3.9306939e-08
8.3675929e-08
2.6663337e-05
3.9708348e-08
8.2271174e-08
2.659956e-05
4.0272023e-08
8.1836195e-08
2.6534295e-05
4.0698028e-08
8.4555705e-08
3.9620865e-08
1.1507134e-07
0.00010494757
5.6811082e-07
6.5033076e-06
9.8925416e-05
1.0462983e-06
6.6283517e-06
9.3480449e-05
1.3439844e-06
6.1835066e-06
8.8341777e-05
1.4751324e-06
5.9184763e-06
8.3502084e-05
1.4993911e-06
5.6187065e-06
7.9004057e-05
1.4572411e-06
5.2482679e-06
7.4853978e-05
1.3667382e-06
4.8478757e-06
7.1037378e-05
1.2423974e-06
4.4464569e-06
6.7536063e-05
1.0997693e-06
4.0563127e-06
6.4331998e-05
9.5192363e-07
3.683491e-06
6.1407318e-05
8.0805759e-07
3.3320524e-06
5.8744339e-05
6.7422203e-07
3.0046209e-06
5.6325632e-05
5.5404399e-07
2.7024907e-06
5.4133973e-05
4.4916749e-07
2.4259383e-06
5.2152298e-05
3.5972402e-07
2.174536e-06
5.0363747e-05
2.8484512e-07
1.9473718e-06
4.875178e-05
2.2310006e-07
1.7432015e-06
4.7300339e-05
1.7281165e-07
1.5605647e-06
4.5994012e-05
1.3226573e-07
1.3978748e-06
4.4818177e-05
9.9840042e-08
1.2534891e-06
4.3759121e-05
7.4075613e-08
1.1257614e-06
4.2804123e-05
5.3707617e-08
1.0130814e-06
4.1941503e-05
3.7671212e-08
9.1390378e-07
4.1160627e-05
2.5096443e-08
8.2676733e-07
4.0451891e-05
1.5294141e-08
7.5030391e-07
3.980679e-05
7.5281678e-09
6.8329174e-07
3.9217543e-05
1.6727434e-09
6.24552e-07
3.8677513e-05
-3.0331219e-09
5.731308e-07
3.8180739e-05
-6.6486865e-09
5.2807351e-07
3.7722004e-05
-9.3595067e-09
4.8853449e-07
3.7296777e-05
-1.1371806e-08
4.5378928e-07
3.6901112e-05
-1.2818259e-08
4.2319913e-07
3.6531588e-05
-1.3805322e-08
3.9620479e-07
3.6185236e-05
-1.4417497e-08
3.7231874e-07
3.5859491e-05
-1.4721913e-08
3.5111776e-07
3.5552132e-05
-1.4772646e-08
3.3223578e-07
3.5261237e-05
-1.4613941e-08
3.1535724e-07
3.4985143e-05
-1.4282146e-08
3.0021087e-07
3.472241e-05
-1.3807684e-08
2.8656375e-07
3.4471787e-05
-1.3215882e-08
2.7421633e-07
3.4232185e-05
-1.2528159e-08
2.6299769e-07
3.4002657e-05
-1.1762808e-08
2.5276174e-07
3.3782373e-05
-1.093525e-08
2.4338337e-07
3.3570606e-05
-1.0058779e-08
2.3475554e-07
3.3366714e-05
-9.1447467e-09
2.2678669e-07
3.3170132e-05
-8.2028321e-09
2.1939832e-07
3.2980356e-05
-7.2412445e-09
2.12523e-07
3.279694e-05
-6.2669105e-09
2.0610281e-07
3.2619482e-05
-5.2855336e-09
2.0008783e-07
3.2447623e-05
-4.3018291e-09
1.9443482e-07
3.228104e-05
-3.3190666e-09
1.8910589e-07
3.2119438e-05
-2.3383061e-09
1.8406735e-07
3.1962554e-05
-1.353086e-09
1.7928644e-07
3.1810075e-05
-2.7635199e-10
1.7472765e-07
3.1661878e-05
5.8581665e-10
1.7043905e-07
3.1517732e-05
1.4355792e-09
1.6637294e-07
3.1377429e-05
2.3037761e-09
1.6248958e-07
3.1240792e-05
3.158618e-09
1.5877485e-07
3.1107656e-05
3.9970044e-09
1.5521721e-07
3.0977867e-05
4.8171681e-09
1.5180547e-07
3.0851284e-05
5.6179829e-09
1.4852968e-07
3.0727774e-05
6.3990522e-09
1.4538078e-07
3.0607209e-05
7.160898e-09
1.4235055e-07
3.0489473e-05
7.9059292e-09
1.394312e-07
3.037445e-05
8.6357345e-09
1.3661576e-07
3.0262049e-05
9.3206321e-09
1.3390394e-07
3.0152163e-05
9.9938028e-09
1.3128563e-07
3.0044697e-05
1.0650368e-08
1.287551e-07
2.9939564e-05
1.1286734e-08
1.2630825e-07
2.983668e-05
1.1903177e-08
1.2394085e-07
2.9735965e-05
1.2500161e-08
1.2164885e-07
2.9637345e-05
1.307786e-08
1.1942842e-07
2.9540748e-05
1.3636711e-08
1.1727618e-07
2.9446105e-05
1.4177027e-08
1.1518881e-07
2.9353352e-05
1.4699184e-08
1.1316339e-07
2.9262425e-05
1.5203524e-08
1.1119702e-07
2.9173268e-05
1.5690451e-08
1.0928706e-07
2.9085822e-05
1.61604e-08
1.0743108e-07
2.9000035e-05
1.6613575e-08
1.0562663e-07
2.8915855e-05
1.7050376e-08
1.0387153e-07
2.8833233e-05
1.7471103e-08
1.021636e-07
2.8752123e-05
1.7875932e-08
1.0050081e-07
2.8672479e-05
1.8265092e-08
9.8881123e-08
2.8594259e-05
1.8638552e-08
9.7302521e-08
2.8517424e-05
1.8996252e-08
9.576296e-08
2.8441934e-05
1.9337815e-08
9.426034e-08
2.8367753e-05
1.9662831e-08
9.2792354e-08
2.8294848e-05
1.9970479e-08
9.1356255e-08
2.8223187e-05
2.0259995e-08
8.9948852e-08
2.8152746e-05
2.0530701e-08
8.8565916e-08
2.8083503e-05
2.0782606e-08
8.7201781e-08
2.8015447e-05
2.1017578e-08
8.5848683e-08
2.7948582e-05
2.1240728e-08
8.4495823e-08
2.7882937e-05
2.1462744e-08
8.3129516e-08
2.7818574e-05
2.1699955e-08
8.1736502e-08
2.7755588e-05
2.1969263e-08
8.0324328e-08
2.7694014e-05
2.226615e-08
7.9016085e-08
2.7633299e-05
2.2506284e-08
7.8480656e-08
2.7571004e-05
2.2393406e-08
8.0599464e-08
2.0993068e-08
1.0779946e-07
0.00010489986
2.7443378e-07
6.5049155e-06
9.8802772e-05
5.0716637e-07
6.6362236e-06
9.329591e-05
6.5854978e-07
6.1922972e-06
8.8116302e-05
7.2902546e-07
5.9257148e-06
8.3248198e-05